      -----------------------------------------------------------      
     |                   =====================                   |     
     |                           x T B                           |     
     |                   =====================                   |     
     |                         S. Grimme                         |     
     |          Mulliken Center for Theoretical Chemistry        |     
     |                    University of Bonn                     |     
      -----------------------------------------------------------      

   * xtb version 6.6.0 (8843059) compiled by 'stahn@majestix' on 2023-02-09

   xtb is free software: you can redistribute it and/or modify it under
   the terms of the GNU Lesser General Public License as published by
   the Free Software Foundation, either version 3 of the License, or
   (at your option) any later version.
   
   xtb is distributed in the hope that it will be useful,
   but WITHOUT ANY WARRANTY; without even the implied warranty of
   MERCHANTABILITY or FITNESS FOR A PARTICULAR PURPOSE.  See the
   GNU Lesser General Public License for more details.
   
   Cite this work as:
   * C. Bannwarth, E. Caldeweyher, S. Ehlert, A. Hansen, P. Pracht,
     J. Seibert, S. Spicher, S. Grimme, WIREs Comput. Mol. Sci., 2020, 11,
     e01493. DOI: 10.1002/wcms.1493
   
   for GFN2-xTB:
   * C. Bannwarth, S. Ehlert and S. Grimme., J. Chem. Theory Comput., 2019,
     15, 1652-1671. DOI: 10.1021/acs.jctc.8b01176
   for GFN1-xTB:
   * S. Grimme, C. Bannwarth, P. Shushkov, J. Chem. Theory Comput., 2017,
     13, 1989-2009. DOI: 10.1021/acs.jctc.7b00118
   for GFN0-xTB:
   * P. Pracht, E. Caldeweyher, S. Ehlert, S. Grimme, ChemRxiv, 2019, preprint.
     DOI: 10.26434/chemrxiv.8326202.v1
   for GFN-FF:
   * S. Spicher and S. Grimme, Angew. Chem. Int. Ed., 2020, 59, 15665-15673.
     DOI: 10.1002/anie.202004239
   
   for ALPB and GBSA implicit solvation:
   * S. Ehlert, M. Stahn, S. Spicher, S. Grimme, J. Chem. Theory Comput.,
     2021, 17, 4250-4261. DOI: 10.1021/acs.jctc.1c00471
   
   for DFT-D4:
   * E. Caldeweyher, C. Bannwarth and S. Grimme, J. Chem. Phys., 2017,
     147, 034112. DOI: 10.1063/1.4993215
   * E. Caldeweyher, S. Ehlert, A. Hansen, H. Neugebauer, S. Spicher,
     C. Bannwarth and S. Grimme, J. Chem. Phys., 2019, 150, 154122.
     DOI: 10.1063/1.5090222
   * E. Caldeweyher, J.-M. Mewes, S. Ehlert and S. Grimme, Phys. Chem. Chem. Phys.
     2020, 22, 8499-8512. DOI: 10.1039/D0CP00502A
   
   for sTDA-xTB:
   * S. Grimme and C. Bannwarth, J. Chem. Phys., 2016, 145, 054103.
     DOI: 10.1063/1.4959605
   
   in the mass-spec context:
   * V. Asgeirsson, C. Bauer and S. Grimme, Chem. Sci., 2017, 8, 4879.
     DOI: 10.1039/c7sc00601b
   * J. Koopman and S. Grimme, ACS Omega 2019, 4, 12, 15120-15133.
     DOI: 10.1021/acsomega.9b02011
   
   for metadynamics refer to:
   * S. Grimme, J. Chem. Theory Comput., 2019, 155, 2847-2862
     DOI: 10.1021/acs.jctc.9b00143
   
   for SPH calculations refer to:
   * S. Spicher and S. Grimme, J. Chem. Theory Comput., 2021, 17, 1701-1714
     DOI: 10.1021/acs.jctc.0c01306
   
   with help from (in alphabetical order)
   P. Atkinson, C. Bannwarth, F. Bohle, G. Brandenburg, E. Caldeweyher
   M. Checinski, S. Dohm, S. Ehlert, S. Ehrlich, I. Gerasimov, C. Hölzer
   A. Katbashev, J. Koopman, C. Lavigne, S. Lehtola, F. März, M. Müller,
   F. Musil, H. Neugebauer, J. Pisarek, C. Plett, P. Pracht, F. Pultar,
   J. Seibert, P. Shushkov, S. Spicher, M. Stahn, M. Steiner, T. Strunk,
   J. Stückrath, T. Rose, and J. Unsleber
   
 * started run on 2023/06/02 at 16:44:12.903     

           -------------------------------------------------
          |                Calculation Setup                |
           -------------------------------------------------

          program call               : xtb CB7.pdb --opt extreme --alpb water
          coordinate file            : CB7.pdb
          omp threads                :                     8

   ID    Z sym.   atoms
    1    7  N     1, 4, 6, 8, 11, 14, 16, 18, 21, 24, 26, 28, 31, 34, 36, 38,
                  41, 44, 46, 48, 55, 58, 60, 62, 73, 76, 78, 80
    2    6  C     2, 3, 5, 7, 12, 13, 15, 17, 22, 23, 25, 27, 32, 33, 35, 37,
                  42, 43, 45, 47, 51-54, 56, 57, 59, 61, 65-72, 74, 75, 77,
                  79, 83, 84
    3    8  O     9, 10, 19, 20, 29, 30, 39, 40, 49, 50, 63, 64, 81, 82
    4    1  H     85-126

           -------------------------------------------------
          |                 G F N 2 - x T B                 |
           -------------------------------------------------

        Reference                      10.1021/acs.jctc.8b01176
      * Hamiltonian:
        H0-scaling (s, p, d)           1.850000    2.230000    2.230000
        zeta-weighting                 0.500000
      * Dispersion:
        s8                             2.700000
        a1                             0.520000
        a2                             5.000000
        s9                             5.000000
      * Repulsion:
        kExp                           1.500000    1.000000
        rExp                           1.000000
      * Coulomb:
        alpha                          2.000000
        third order                    shell-resolved
        anisotropic                    true
        a3                             3.000000
        a5                             4.000000
        cn-shift                       1.200000
        cn-exp                         4.000000
        max-rad                        5.000000

      * Solvation model:               ALPB
        Solvent                        water
        Parameter file                 internal GFN2-xTB/ALPB
        Dielectric constant                8.0200E+01
        Reference state                gsolv [1 M gas/solution]
        Free energy shift                  1.0808E-03 Eh       6.7819E-01 kcal/mol
        Temperature                        2.9815E+02 K
        Density                            1.0000E+00 kg/L
        Solvent mass                       1.8000E+01 g/mol
        Interaction kernel             P16
        Born radius scaling (c1)           1.4744E+00
        Born radii integrator          GBOBC
        Born offset                        0.0000E+00 a0       0.0000E+00 AA
        H-bond correction              true
        Ion screening                  false
        Surface tension                    1.0000E-05 Eh       1.5569E+01 dyn/cm
        Grid points                               230 per atom
q/qsh data taken from xtbrestart
CAMM data taken from xtbrestart

          ...................................................
          :                      SETUP                      :
          :.................................................:
          :  # basis functions                 378          :
          :  # atomic orbitals                 378          :
          :  # shells                          210          :
          :  # electrons                       434          :
          :  max. iterations                   250          :
          :  Hamiltonian                  GFN2-xTB          :
          :  restarted?                       true          :
          :  GBSA solvation                   true          :
          :  PC potential                    false          :
          :  electronic temp.          300.0000000     K    :
          :  accuracy                    1.0000000          :
          :  -> integral cutoff          0.2500000E+02      :
          :  -> integral neglect         0.1000000E-07      :
          :  -> SCF convergence          0.1000000E-05 Eh   :
          :  -> wf. convergence          0.1000000E-03 e    :
          :  Broyden damping             0.4000000          :
          ...................................................

 iter      E             dE          RMSdq      gap      omega  full diag
   1   -253.5934815 -0.253593E+03  0.845E-01    4.97       0.0  T
   2   -253.6179413 -0.244598E-01  0.391E-01    5.20       1.0  T
   3   -253.6190773 -0.113597E-02  0.200E-01    5.19       1.0  T
   4   -253.6194690 -0.391744E-03  0.528E-02    5.22       1.0  T
   5   -253.6195325 -0.634466E-04  0.295E-02    5.21       1.0  T
   6   -253.6195493 -0.168615E-04  0.752E-03    5.21       1.2  T
   7   -253.6195496 -0.269366E-06  0.255E-03    5.21       3.5  T
   8   -253.6195498 -0.217855E-06  0.453E-04    5.21      19.7  T
   9   -253.6195498 -0.293554E-08  0.236E-04    5.21      37.8  T

   *** convergence criteria satisfied after 9 iterations ***

         #    Occupation            Energy/Eh            Energy/eV
      -------------------------------------------------------------
         1        2.0000           -0.7370417             -20.0559
       ...           ...                  ...                  ...
       211        2.0000           -0.4147055             -11.2847
       212        2.0000           -0.4146732             -11.2838
       213        2.0000           -0.4138481             -11.2614
       214        2.0000           -0.4136597             -11.2563
       215        2.0000           -0.4133715             -11.2484
       216        2.0000           -0.4133083             -11.2467
       217        2.0000           -0.4127540             -11.2316 (HOMO)
       218                         -0.2211695              -6.0183 (LUMO)
       219                         -0.2211018              -6.0165
       220                         -0.2199906              -5.9862
       221                         -0.2184952              -5.9456
       222                         -0.2184739              -5.9450
       ...                                ...                  ...
       378                          0.6646190              18.0852
      -------------------------------------------------------------
                  HL-Gap            0.1915846 Eh            5.2133 eV
             Fermi-level           -0.3169618 Eh           -8.6250 eV

 SCC (total)                   0 d,  0 h,  0 min,  1.062 sec
 SCC setup                      ...        0 min,  0.029 sec (  2.744%)
 Dispersion                     ...        0 min,  0.018 sec (  1.651%)
 classical contributions        ...        0 min,  0.000 sec (  0.029%)
 integral evaluation            ...        0 min,  0.081 sec (  7.671%)
 iterations                     ...        0 min,  0.716 sec ( 67.399%)
 molecular gradient             ...        0 min,  0.211 sec ( 19.921%)
 printout                       ...        0 min,  0.006 sec (  0.574%)

         :::::::::::::::::::::::::::::::::::::::::::::::::::::
         ::                     SUMMARY                     ::
         :::::::::::::::::::::::::::::::::::::::::::::::::::::
         :: total energy            -251.152536847428 Eh    ::
         :: total w/o Gsasa/hb      -251.150191892871 Eh    ::
         :: gradient norm              0.106738048770 Eh/a0 ::
         :: HOMO-LUMO gap              5.213281230001 eV    ::
         ::.................................................::
         :: SCC energy              -253.619549826791 Eh    ::
         :: -> isotropic ES            0.825202526064 Eh    ::
         :: -> anisotropic ES          0.018738063523 Eh    ::
         :: -> anisotropic XC          0.038976514371 Eh    ::
         :: -> dispersion             -0.198329281602 Eh    ::
         :: -> Gsolv                  -0.193940397440 Eh    ::
         ::    -> Gelec               -0.191595442883 Eh    ::
         ::    -> Gsasa                0.013743948723 Eh    ::
         ::    -> Ghb                 -0.017169662979 Eh    ::
         ::    -> Gshift               0.001080759698 Eh    ::
         :: repulsion energy           2.458343212981 Eh    ::
         :: add. restraining           0.000000000000 Eh    ::
         :: total charge              -0.000000000000 e     ::
         :::::::::::::::::::::::::::::::::::::::::::::::::::::

      ----------------------------------------------------------- 
     |                   =====================                   |
     |                        A N C O P T                        |
     |                   =====================                   |
     |               Approximate Normal Coordinate               |
     |                Rational Function Optimizer                |
      ----------------------------------------------------------- 

          ...................................................
          :                      SETUP                      :
          :.................................................:
          :   optimization level           extreme          :
          :   max. optcycles                  2520          :
          :   ANC micro-cycles                  20          :
          :   degrees of freedom               372          :
          :.................................................:
          :   RF solver                   davidson          :
          :   write xtbopt.log                true          :
          :   linear?                        false          :
          :   energy convergence         0.5000000E-07 Eh   :
          :   grad. convergence          0.5000000E-04 Eh/α :
          :   maxmium RF displ.          1.0000000          :
          :   Hlow (freq-cutoff)         0.1000000E-01      :
          :   Hmax (freq-cutoff)         5.0000000          :
          :   S6 in model hess.         20.0000000          :
          ...................................................

generating ANC from model Hessian ...
Using Lindh-Hessian (1995)
 Shifting diagonal of input Hessian by   9.571959642130213E-003
 Lowest  eigenvalues of input Hessian
    0.000000    0.000000    0.000000    0.000000    0.000000    0.000000
    0.010000    0.010002    0.010426    0.010432    0.012307    0.012313
    0.013691    0.013692    0.013827    0.013836    0.014042    0.015689
 Highest eigenvalues
    2.496949    2.498586    2.499497    2.501729    2.502514    2.504950
 

........................................................................
.............................. CYCLE    1 ..............................
........................................................................

 iter      E             dE          RMSdq      gap      omega  full diag
   1   -253.6195498 -0.253620E+03  0.340E-05    5.21       0.0  T
   2   -253.6195498 -0.108287E-10  0.213E-05    5.21     418.4  T
   3   -253.6195498 -0.312639E-12  0.841E-06    5.21    1059.3  T
     SCC iter.                  ...        0 min,  0.275 sec
     gradient                   ...        0 min,  0.183 sec
 * total energy  :  -251.1525368 Eh     change       -0.3055618E-09 Eh
   gradient norm :     0.1067426 Eh/α   predicted     0.0000000E+00 (-100.00%)
   displ. norm   :     0.3352102 α      lambda       -0.1254401E-01
   maximum displ.:     0.2046775 α      in ANC's #14, #36, #25, ...

........................................................................
.............................. CYCLE    2 ..............................
........................................................................

 iter      E             dE          RMSdq      gap      omega  full diag
   1   -253.6486122 -0.253649E+03  0.122E-01    5.27       0.0  T
   2   -253.6488840 -0.271791E-03  0.640E-02    5.29       1.0  T
   3   -253.6488889 -0.484513E-05  0.249E-02    5.29       1.0  T
   4   -253.6488911 -0.221221E-05  0.345E-03    5.29       2.6  T
   5   -253.6488915 -0.422285E-06  0.170E-03    5.29       5.2  T
   6   -253.6488915 -0.106379E-07  0.214E-04    5.29      41.6  T
   7   -253.6488915 -0.628177E-09  0.115E-04    5.29      77.1  T
     SCC iter.                  ...        0 min,  0.498 sec
     gradient                   ...        0 min,  0.144 sec
 * total energy  :  -251.1620677 Eh     change       -0.9530881E-02 Eh
   gradient norm :     0.0582531 Eh/α   predicted    -0.6999530E-02 ( -26.56%)
   displ. norm   :     0.4575714 α      lambda       -0.8236255E-02
   maximum displ.:     0.2985637 α      in ANC's #14, #36, #25, ...

........................................................................
.............................. CYCLE    3 ..............................
........................................................................

 iter      E             dE          RMSdq      gap      omega  full diag
   1   -253.6700290 -0.253670E+03  0.134E-01    5.34       0.0  T
   2   -253.6704818 -0.452888E-03  0.689E-02    5.37       1.0  T
   3   -253.6704880 -0.613262E-05  0.307E-02    5.37       1.0  T
   4   -253.6704897 -0.177228E-05  0.310E-03    5.37       2.9  T
   5   -253.6704901 -0.366376E-06  0.164E-03    5.37       5.4  T
   6   -253.6704901 -0.255216E-07  0.406E-04    5.37      21.9  T
   7   -253.6704901 -0.132121E-08  0.199E-04    5.37      44.7  T
     SCC iter.                  ...        0 min,  0.532 sec
     gradient                   ...        0 min,  0.237 sec
 * total energy  :  -251.1674980 Eh     change       -0.5430280E-02 Eh
   gradient norm :     0.0111069 Eh/α   predicted    -0.4982067E-02 (  -8.25%)
   displ. norm   :     0.4168395 α      lambda       -0.2792679E-02
   maximum displ.:     0.2981081 α      in ANC's #14, #36, #25, ...

........................................................................
.............................. CYCLE    4 ..............................
........................................................................

 iter      E             dE          RMSdq      gap      omega  full diag
   1   -253.6755632 -0.253676E+03  0.856E-02    5.38       0.0  T
   2   -253.6756144 -0.512203E-04  0.488E-02    5.39       1.0  T
   3   -253.6756162 -0.175805E-05  0.114E-02    5.38       1.0  T
   4   -253.6756177 -0.148698E-05  0.242E-03    5.39       3.7  T
   5   -253.6756178 -0.115850E-06  0.154E-03    5.39       5.8  T
   6   -253.6756178 -0.335172E-07  0.313E-04    5.39      28.5  T
   7   -253.6756178 -0.861803E-09  0.144E-04    5.39      61.8  T
     SCC iter.                  ...        0 min,  0.423 sec
     gradient                   ...        0 min,  0.202 sec
 * total energy  :  -251.1696836 Eh     change       -0.2185633E-02 Eh
   gradient norm :     0.0236414 Eh/α   predicted    -0.1638965E-02 ( -25.01%)
   displ. norm   :     0.5175851 α      lambda       -0.2582541E-02
   maximum displ.:     0.3648366 α      in ANC's #14, #36, #25, ...

........................................................................
.............................. CYCLE    5 ..............................
........................................................................

 iter      E             dE          RMSdq      gap      omega  full diag
   1   -253.6781944 -0.253678E+03  0.106E-01    5.38       0.0  T
   2   -253.6782094 -0.149772E-04  0.623E-02    5.38       1.0  T
   3   -253.6782126 -0.319850E-05  0.705E-03    5.38       1.3  T
   4   -253.6782154 -0.281210E-05  0.363E-03    5.38       2.5  T
   5   -253.6782155 -0.144782E-06  0.110E-03    5.38       8.1  T
   6   -253.6782155 -0.172547E-07  0.446E-04    5.38      20.0  T
   7   -253.6782155 -0.302808E-08  0.108E-04    5.38      82.5  T
     SCC iter.                  ...        0 min,  0.502 sec
     gradient                   ...        0 min,  0.217 sec
 * total energy  :  -251.1715848 Eh     change       -0.1901138E-02 Eh
   gradient norm :     0.0262956 Eh/α   predicted    -0.1637209E-02 ( -13.88%)
   displ. norm   :     0.3978074 α      lambda       -0.1399937E-02
   maximum displ.:     0.2681034 α      in ANC's #14, #36, #25, ...

........................................................................
.............................. CYCLE    6 ..............................
........................................................................

 iter      E             dE          RMSdq      gap      omega  full diag
   1   -253.6840649 -0.253684E+03  0.848E-02    5.38       0.0  T
   2   -253.6840957 -0.308291E-04  0.499E-02    5.38       1.0  T
   3   -253.6840994 -0.364982E-05  0.760E-03    5.38       1.2  T
   4   -253.6841000 -0.567756E-06  0.282E-03    5.38       3.2  T
   5   -253.6841000 -0.719637E-07  0.109E-03    5.38       8.2  T
   6   -253.6841001 -0.311290E-07  0.421E-04    5.38      21.2  T
   7   -253.6841001 -0.280059E-08  0.113E-04    5.38      78.6  T
     SCC iter.                  ...        0 min,  0.521 sec
     gradient                   ...        0 min,  0.227 sec
 * total energy  :  -251.1725468 Eh     change       -0.9619792E-03 Eh
   gradient norm :     0.0156311 Eh/α   predicted    -0.8107595E-03 ( -15.72%)
   displ. norm   :     0.2317704 α      lambda       -0.5325445E-03
   maximum displ.:     0.1285556 α      in ANC's #14, #25, #4, ...

........................................................................
.............................. CYCLE    7 ..............................
........................................................................

 iter      E             dE          RMSdq      gap      omega  full diag
   1   -253.6912243 -0.253691E+03  0.487E-02    5.38       0.0  T
   2   -253.6912442 -0.198624E-04  0.287E-02    5.37       1.0  T
   3   -253.6912453 -0.110828E-05  0.661E-03    5.37       1.3  T
   4   -253.6912458 -0.506016E-06  0.165E-03    5.37       5.4  T
   5   -253.6912459 -0.653126E-07  0.817E-04    5.37      10.9  T
   6   -253.6912459 -0.119230E-07  0.219E-04    5.37      40.7  T
     SCC iter.                  ...        0 min,  0.531 sec
     gradient                   ...        0 min,  0.214 sec
 * total energy  :  -251.1729011 Eh     change       -0.3543026E-03 Eh
   gradient norm :     0.0048327 Eh/α   predicted    -0.2806649E-03 ( -20.78%)
   displ. norm   :     0.1577779 α      lambda       -0.1839188E-03
   maximum displ.:     0.1068510 α      in ANC's #4, #25, #14, ...

........................................................................
.............................. CYCLE    8 ..............................
........................................................................

 iter      E             dE          RMSdq      gap      omega  full diag
   1   -253.6936218 -0.253694E+03  0.272E-02    5.37       0.0  T
   2   -253.6936248 -0.301959E-05  0.161E-02    5.37       1.0  T
   3   -253.6936250 -0.259441E-06  0.228E-03    5.37       3.9  T
   4   -253.6936252 -0.144999E-06  0.806E-04    5.37      11.1  T
   5   -253.6936252 -0.135379E-07  0.379E-04    5.37      23.5  T
     SCC iter.                  ...        0 min,  0.349 sec
     gradient                   ...        0 min,  0.205 sec
 * total energy  :  -251.1730343 Eh     change       -0.1331926E-03 Eh
   gradient norm :     0.0041519 Eh/α   predicted    -0.9425353E-04 ( -29.24%)
   displ. norm   :     0.1463219 α      lambda       -0.1222394E-03
   maximum displ.:     0.1154003 α      in ANC's #4, #12, #25, ...

........................................................................
.............................. CYCLE    9 ..............................
........................................................................

 iter      E             dE          RMSdq      gap      omega  full diag
   1   -253.6939728 -0.253694E+03  0.193E-02    5.37       0.0  T
   2   -253.6939740 -0.113571E-05  0.112E-02    5.37       1.0  T
   3   -253.6939741 -0.142659E-06  0.135E-03    5.37       6.6  T
   4   -253.6939741 -0.350301E-07  0.520E-04    5.37      17.1  T
   5   -253.6939741 -0.297663E-08  0.221E-04    5.37      40.3  T
     SCC iter.                  ...        0 min,  0.429 sec
     gradient                   ...        0 min,  0.153 sec
 * total energy  :  -251.1731313 Eh     change       -0.9701841E-04 Eh
   gradient norm :     0.0050248 Eh/α   predicted    -0.6242863E-04 ( -35.65%)
   displ. norm   :     0.1600034 α      lambda       -0.1199174E-03
   maximum displ.:     0.1324347 α      in ANC's #4, #12, #36, ...

........................................................................
.............................. CYCLE   10 ..............................
........................................................................

 iter      E             dE          RMSdq      gap      omega  full diag
   1   -253.6931776 -0.253693E+03  0.178E-02    5.37       0.0  T
   2   -253.6931790 -0.145568E-05  0.101E-02    5.37       1.0  T
   3   -253.6931791 -0.130918E-06  0.162E-03    5.37       5.5  T
   4   -253.6931792 -0.275006E-07  0.476E-04    5.37      18.7  T
   5   -253.6931792 -0.162717E-08  0.204E-04    5.37      43.6  T
     SCC iter.                  ...        0 min,  0.330 sec
     gradient                   ...        0 min,  0.270 sec
 * total energy  :  -251.1732302 Eh     change       -0.9894069E-04 Eh
   gradient norm :     0.0045237 Eh/α   predicted    -0.6149540E-04 ( -37.85%)
   displ. norm   :     0.1844490 α      lambda       -0.1272935E-03
   maximum displ.:     0.1559080 α      in ANC's #4, #12, #36, ...

........................................................................
.............................. CYCLE   11 ..............................
........................................................................

 iter      E             dE          RMSdq      gap      omega  full diag
   1   -253.6920576 -0.253692E+03  0.204E-02    5.37       0.0  T
   2   -253.6920596 -0.199238E-05  0.117E-02    5.37       1.0  T
   3   -253.6920598 -0.165227E-06  0.190E-03    5.37       4.7  T
   4   -253.6920599 -0.613506E-07  0.582E-04    5.37      15.3  T
   5   -253.6920599 -0.467838E-08  0.276E-04    5.37      32.3  T
     SCC iter.                  ...        0 min,  0.434 sec
     gradient                   ...        0 min,  0.184 sec
 * total energy  :  -251.1733345 Eh     change       -0.1042387E-03 Eh
   gradient norm :     0.0032545 Eh/α   predicted    -0.6582068E-04 ( -36.86%)
   displ. norm   :     0.1954395 α      lambda       -0.1158472E-03
   maximum displ.:     0.1682947 α      in ANC's #4, #12, #36, ...

........................................................................
.............................. CYCLE   12 ..............................
........................................................................

 iter      E             dE          RMSdq      gap      omega  full diag
   1   -253.6912615 -0.253691E+03  0.230E-02    5.37       0.0  T
   2   -253.6912632 -0.172444E-05  0.134E-02    5.37       1.0  T
   3   -253.6912634 -0.200871E-06  0.167E-03    5.37       5.3  T
   4   -253.6912635 -0.771428E-07  0.652E-04    5.37      13.7  T
   5   -253.6912635 -0.548400E-08  0.289E-04    5.37      30.8  T
     SCC iter.                  ...        0 min,  0.321 sec
     gradient                   ...        0 min,  0.220 sec
 * total energy  :  -251.1734273 Eh     change       -0.9286414E-04 Eh
   gradient norm :     0.0024856 Eh/α   predicted    -0.6014298E-04 ( -35.24%)
   displ. norm   :     0.1761415 α      lambda       -0.8563705E-04
   maximum displ.:     0.1546064 α      in ANC's #4, #25, #12, ...

........................................................................
.............................. CYCLE   13 ..............................
........................................................................

 iter      E             dE          RMSdq      gap      omega  full diag
   1   -253.6912642 -0.253691E+03  0.215E-02    5.37       0.0  T
   2   -253.6912651 -0.900489E-06  0.126E-02    5.37       1.0  T
   3   -253.6912653 -0.196483E-06  0.117E-03    5.37       7.6  T
   4   -253.6912653 -0.292792E-07  0.579E-04    5.37      15.4  T
   5   -253.6912653 -0.248860E-08  0.194E-04    5.37      45.9  T
     SCC iter.                  ...        0 min,  0.439 sec
     gradient                   ...        0 min,  0.158 sec
 * total energy  :  -251.1734957 Eh     change       -0.6835650E-04 Eh
   gradient norm :     0.0024403 Eh/α   predicted    -0.4414936E-04 ( -35.41%)
   displ. norm   :     0.1422787 α      lambda       -0.5872433E-04
   maximum displ.:     0.1267347 α      in ANC's #4, #25, #3, ...

........................................................................
.............................. CYCLE   14 ..............................
........................................................................

 iter      E             dE          RMSdq      gap      omega  full diag
   1   -253.6917956 -0.253692E+03  0.172E-02    5.37       0.0  T
   2   -253.6917960 -0.497642E-06  0.100E-02    5.37       1.0  T
   3   -253.6917962 -0.127851E-06  0.884E-04    5.37      10.1  T
   4   -253.6917962 -0.962973E-08  0.447E-04    5.37      19.9  T
     SCC iter.                  ...        0 min,  0.252 sec
     gradient                   ...        0 min,  0.172 sec
 * total energy  :  -251.1735434 Eh     change       -0.4777716E-04 Eh
   gradient norm :     0.0021786 Eh/α   predicted    -0.2995864E-04 ( -37.30%)
   displ. norm   :     0.1138587 α      lambda       -0.4292612E-04
   maximum displ.:     0.1009676 α      in ANC's #4, #25, #3, ...

........................................................................
.............................. CYCLE   15 ..............................
........................................................................

 iter      E             dE          RMSdq      gap      omega  full diag
   1   -253.6924823 -0.253692E+03  0.131E-02    5.38       0.0  T
   2   -253.6924827 -0.375611E-06  0.761E-03    5.38       1.2  T
   3   -253.6924828 -0.525870E-07  0.836E-04    5.38      10.7  T
   4   -253.6924828 -0.240415E-07  0.356E-04    5.38      25.0  T
     SCC iter.                  ...        0 min,  0.294 sec
     gradient                   ...        0 min,  0.179 sec
 * total energy  :  -251.1735795 Eh     change       -0.3605134E-04 Eh
   gradient norm :     0.0016866 Eh/α   predicted    -0.2174390E-04 ( -39.69%)
   displ. norm   :     0.1543762 α      lambda       -0.3716381E-04
   maximum displ.:     0.1325510 α      in ANC's #4, #12, #36, ...

........................................................................
.............................. CYCLE   16 ..............................
........................................................................

 iter      E             dE          RMSdq      gap      omega  full diag
   1   -253.6930995 -0.253693E+03  0.168E-02    5.38       0.0  T
   2   -253.6931001 -0.631912E-06  0.977E-03    5.38       1.0  T
   3   -253.6931002 -0.522050E-07  0.112E-03    5.38       8.0  T
   4   -253.6931002 -0.637369E-07  0.427E-04    5.38      20.9  T
   5   -253.6931002 -0.212532E-08  0.211E-04    5.38      42.2  T
     SCC iter.                  ...        0 min,  0.344 sec
     gradient                   ...        0 min,  0.221 sec
 * total energy  :  -251.1736235 Eh     change       -0.4402017E-04 Eh
   gradient norm :     0.0015906 Eh/α   predicted    -0.1877971E-04 ( -57.34%)
   displ. norm   :     0.1200017 α      lambda       -0.2812525E-04
   maximum displ.:     0.0994628 α      in ANC's #4, #12, #3, ...

........................................................................
.............................. CYCLE   17 ..............................
........................................................................

 iter      E             dE          RMSdq      gap      omega  full diag
   1   -253.6929785 -0.253693E+03  0.125E-02    5.38       0.0  T
   2   -253.6929786 -0.180221E-06  0.727E-03    5.38       1.2  T
   3   -253.6929787 -0.394949E-07  0.563E-04    5.38      15.8  T
   4   -253.6929787 -0.198139E-07  0.279E-04    5.38      32.0  T
     SCC iter.                  ...        0 min,  0.284 sec
     gradient                   ...        0 min,  0.146 sec
 * total energy  :  -251.1736613 Eh     change       -0.3780439E-04 Eh
   gradient norm :     0.0015322 Eh/α   predicted    -0.1416024E-04 ( -62.54%)
   displ. norm   :     0.1410017 α      lambda       -0.3747372E-04
   maximum displ.:     0.1079220 α      in ANC's #4, #12, #3, ...

........................................................................
.............................. CYCLE   18 ..............................
........................................................................

 iter      E             dE          RMSdq      gap      omega  full diag
   1   -253.6924671 -0.253692E+03  0.159E-02    5.38       0.0  T
   2   -253.6924674 -0.287477E-06  0.911E-03    5.38       1.0  T
   3   -253.6924675 -0.990323E-07  0.546E-04    5.38      16.3  T
   4   -253.6924675 -0.634085E-08  0.302E-04    5.38      29.5  T
     SCC iter.                  ...        0 min,  0.319 sec
     gradient                   ...        0 min,  0.156 sec
 * total energy  :  -251.1737115 Eh     change       -0.5018412E-04 Eh
   gradient norm :     0.0012999 Eh/α   predicted    -0.1890291E-04 ( -62.33%)
   displ. norm   :     0.1862786 α      lambda       -0.4771433E-04
   maximum displ.:     0.1407938 α      in ANC's #4, #12, #3, ...

........................................................................
.............................. CYCLE   19 ..............................
........................................................................

 iter      E             dE          RMSdq      gap      omega  full diag
   1   -253.6920588 -0.253692E+03  0.219E-02    5.38       0.0  T
   2   -253.6920596 -0.715303E-06  0.125E-02    5.38       1.0  T
   3   -253.6920598 -0.214615E-06  0.787E-04    5.38      11.3  T
   4   -253.6920598 -0.651116E-08  0.402E-04    5.38      22.2  T
     SCC iter.                  ...        0 min,  0.289 sec
     gradient                   ...        0 min,  0.122 sec
 * total energy  :  -251.1737730 Eh     change       -0.6148081E-04 Eh
   gradient norm :     0.0013151 Eh/α   predicted    -0.2422949E-04 ( -60.59%)
   displ. norm   :     0.1896458 α      lambda       -0.4263560E-04
   maximum displ.:     0.1484145 α      in ANC's #4, #12, #3, ...

........................................................................
.............................. CYCLE   20 ..............................
........................................................................

 iter      E             dE          RMSdq      gap      omega  full diag
   1   -253.6913890 -0.253691E+03  0.225E-02    5.38       0.0  T
   2   -253.6913898 -0.870014E-06  0.129E-02    5.38       1.0  T
   3   -253.6913900 -0.184988E-06  0.107E-03    5.38       8.3  T
   4   -253.6913901 -0.504065E-07  0.478E-04    5.38      18.7  T
   5   -253.6913901 -0.286798E-08  0.222E-04    5.38      40.1  T
     SCC iter.                  ...        0 min,  0.305 sec
     gradient                   ...        0 min,  0.215 sec
 * total energy  :  -251.1738269 Eh     change       -0.5392278E-04 Eh
   gradient norm :     0.0015148 Eh/α   predicted    -0.2166050E-04 ( -59.83%)
   displ. norm   :     0.1417493 α      lambda       -0.3150029E-04
   maximum displ.:     0.1195090 α      in ANC's #4, #12, #3, ...
 * RMSD in coord.:     0.2864592 α      energy gain  -0.2129006E-01 Eh

generating ANC from model Hessian ...
Using Lindh-Hessian (1995)
 Shifting diagonal of input Hessian by   9.529319392873501E-003
 Lowest  eigenvalues of input Hessian
    0.000000    0.000000    0.000000    0.000000    0.000000    0.000000
    0.010000    0.010001    0.010432    0.010433    0.012504    0.012505
    0.013540    0.013546    0.013877    0.013883    0.013887    0.015449
 Highest eigenvalues
    2.526466    2.526749    2.530285    2.532049    2.532516    2.533774
 

........................................................................
.............................. CYCLE   21 ..............................
........................................................................

 iter      E             dE          RMSdq      gap      omega  full diag
   1   -253.6924899 -0.253692E+03  0.157E-02    5.38       0.0  T
   2   -253.6924906 -0.684078E-06  0.901E-03    5.38       1.0  T
   3   -253.6924907 -0.947061E-07  0.100E-03    5.38       8.9  T
   4   -253.6924908 -0.363477E-07  0.371E-04    5.38      24.0  T
   5   -253.6924908 -0.271007E-08  0.175E-04    5.38      50.9  T
     SCC iter.                  ...        0 min,  0.340 sec
     gradient                   ...        0 min,  0.208 sec
 * total energy  :  -251.1738652 Eh     change       -0.3825207E-04 Eh
   gradient norm :     0.0018600 Eh/α   predicted     0.0000000E+00 (-100.00%)
   displ. norm   :     0.0510686 α      lambda       -0.1417286E-04
   maximum displ.:     0.0404112 α      in ANC's #4, #3, #12, ...

........................................................................
.............................. CYCLE   22 ..............................
........................................................................

 iter      E             dE          RMSdq      gap      omega  full diag
   1   -253.6924689 -0.253692E+03  0.412E-03    5.38       0.0  T
   2   -253.6924692 -0.239434E-06  0.240E-03    5.38       3.7  T
   3   -253.6924692 -0.763387E-08  0.845E-04    5.38      10.5  T
   4   -253.6924692 -0.169477E-07  0.169E-04    5.38      52.7  T
     SCC iter.                  ...        0 min,  0.381 sec
     gradient                   ...        0 min,  0.152 sec
 * total energy  :  -251.1738855 Eh     change       -0.2030761E-04 Eh
   gradient norm :     0.0007267 Eh/α   predicted    -0.8421298E-05 ( -58.53%)
   displ. norm   :     0.0881443 α      lambda       -0.1933932E-04
   maximum displ.:     0.0658614 α      in ANC's #4, #3, #12, ...

........................................................................
.............................. CYCLE   23 ..............................
........................................................................

 iter      E             dE          RMSdq      gap      omega  full diag
   1   -253.6929731 -0.253693E+03  0.598E-03    5.38       0.0  T
   2   -253.6929731 -0.408714E-07  0.346E-03    5.38       2.6  T
   3   -253.6929731 -0.892453E-08  0.277E-04    5.38      32.1  T
   4   -253.6929731 -0.345449E-08  0.136E-04    5.38      65.7  T
     SCC iter.                  ...        0 min,  0.369 sec
     gradient                   ...        0 min,  0.159 sec
 * total energy  :  -251.1739098 Eh     change       -0.2432289E-04 Eh
   gradient norm :     0.0011232 Eh/α   predicted    -0.9706258E-05 ( -60.09%)
   displ. norm   :     0.0988110 α      lambda       -0.1711926E-04
   maximum displ.:     0.0738892 α      in ANC's #4, #3, #12, ...

........................................................................
.............................. CYCLE   24 ..............................
........................................................................

 iter      E             dE          RMSdq      gap      omega  full diag
   1   -253.6932524 -0.253693E+03  0.653E-03    5.38       0.0  T
   2   -253.6932525 -0.597795E-07  0.382E-03    5.38       2.3  T
   3   -253.6932525 -0.933719E-08  0.296E-04    5.38      30.1  T
   4   -253.6932525 -0.416370E-08  0.143E-04    5.38      62.4  T
     SCC iter.                  ...        0 min,  0.294 sec
     gradient                   ...        0 min,  0.191 sec
 * total energy  :  -251.1739324 Eh     change       -0.2260940E-04 Eh
   gradient norm :     0.0009702 Eh/α   predicted    -0.8599281E-05 ( -61.97%)
   displ. norm   :     0.1158894 α      lambda       -0.1817642E-04
   maximum displ.:     0.0860643 α      in ANC's #4, #3, #32, ...

........................................................................
.............................. CYCLE   25 ..............................
........................................................................

 iter      E             dE          RMSdq      gap      omega  full diag
   1   -253.6932457 -0.253693E+03  0.832E-03    5.38       0.0  T
   2   -253.6932458 -0.102612E-06  0.487E-03    5.38       1.8  T
   3   -253.6932459 -0.180013E-07  0.382E-04    5.38      23.3  T
   4   -253.6932459 -0.579178E-08  0.193E-04    5.38      46.3  T
     SCC iter.                  ...        0 min,  0.275 sec
     gradient                   ...        0 min,  0.210 sec
 * total energy  :  -251.1739573 Eh     change       -0.2485175E-04 Eh
   gradient norm :     0.0007316 Eh/α   predicted    -0.9149830E-05 ( -63.18%)
   displ. norm   :     0.1667713 α      lambda       -0.2490856E-04
   maximum displ.:     0.1220517 α      in ANC's #4, #3, #32, ...

........................................................................
.............................. CYCLE   26 ..............................
........................................................................

 iter      E             dE          RMSdq      gap      omega  full diag
   1   -253.6930651 -0.253693E+03  0.131E-02    5.38       0.0  T
   2   -253.6930654 -0.222102E-06  0.765E-03    5.38       1.2  T
   3   -253.6930654 -0.516296E-07  0.570E-04    5.38      15.6  T
   4   -253.6930654 -0.102422E-07  0.309E-04    5.38      28.8  T
     SCC iter.                  ...        0 min,  0.284 sec
     gradient                   ...        0 min,  0.213 sec
 * total energy  :  -251.1739914 Eh     change       -0.3416162E-04 Eh
   gradient norm :     0.0006506 Eh/α   predicted    -0.1261262E-04 ( -63.08%)
   displ. norm   :     0.2749513 α      lambda       -0.3805016E-04
   maximum displ.:     0.1981298 α      in ANC's #4, #3, #12, ...

........................................................................
.............................. CYCLE   27 ..............................
........................................................................

 iter      E             dE          RMSdq      gap      omega  full diag
   1   -253.6925615 -0.253693E+03  0.230E-02    5.38       0.0  T
   2   -253.6925621 -0.580067E-06  0.134E-02    5.38       1.0  T
   3   -253.6925622 -0.171524E-06  0.928E-04    5.38       9.6  T
   4   -253.6925622 -0.190171E-07  0.529E-04    5.38      16.8  T
     SCC iter.                  ...        0 min,  0.306 sec
     gradient                   ...        0 min,  0.212 sec
 * total energy  :  -251.1740422 Eh     change       -0.5074978E-04 Eh
   gradient norm :     0.0007939 Eh/α   predicted    -0.1966588E-04 ( -61.25%)
   displ. norm   :     0.4243811 α      lambda       -0.5014506E-04
   maximum displ.:     0.3030342 α      in ANC's #4, #3, #12, ...

........................................................................
.............................. CYCLE   28 ..............................
........................................................................

 iter      E             dE          RMSdq      gap      omega  full diag
   1   -253.6917431 -0.253692E+03  0.369E-02    5.38       0.0  T
   2   -253.6917445 -0.132965E-05  0.215E-02    5.38       1.0  T
   3   -253.6917449 -0.446704E-06  0.142E-03    5.38       6.3  T
   4   -253.6917449 -0.366933E-07  0.824E-04    5.38      10.8  T
   5   -253.6917450 -0.344585E-08  0.185E-04    5.38      48.1  T
     SCC iter.                  ...        0 min,  0.303 sec
     gradient                   ...        0 min,  0.140 sec
 * total energy  :  -251.1741046 Eh     change       -0.6244831E-04 Eh
   gradient norm :     0.0010492 Eh/α   predicted    -0.2708097E-04 ( -56.63%)
   displ. norm   :     0.4861768 α      lambda       -0.4360771E-04
   maximum displ.:     0.3454775 α      in ANC's #4, #3, #12, ...

........................................................................
.............................. CYCLE   29 ..............................
........................................................................

 iter      E             dE          RMSdq      gap      omega  full diag
   1   -253.6910810 -0.253691E+03  0.436E-02    5.38       0.0  T
   2   -253.6910827 -0.167563E-05  0.253E-02    5.38       1.0  T
   3   -253.6910833 -0.621032E-06  0.160E-03    5.38       5.6  T
   4   -253.6910834 -0.362791E-07  0.934E-04    5.38       9.5  T
   5   -253.6910834 -0.463214E-08  0.171E-04    5.38      52.2  T
     SCC iter.                  ...        0 min,  0.246 sec
     gradient                   ...        0 min,  0.180 sec
 * total energy  :  -251.1741524 Eh     change       -0.4780320E-04 Eh
   gradient norm :     0.0012797 Eh/α   predicted    -0.2409482E-04 ( -49.60%)
   displ. norm   :     0.3219313 α      lambda       -0.2036165E-04
   maximum displ.:     0.2280445 α      in ANC's #4, #3, #12, ...

........................................................................
.............................. CYCLE   30 ..............................
........................................................................

 iter      E             dE          RMSdq      gap      omega  full diag
   1   -253.6920875 -0.253692E+03  0.299E-02    5.38       0.0  T
   2   -253.6920882 -0.702967E-06  0.174E-02    5.38       1.0  T
   3   -253.6920885 -0.285349E-06  0.105E-03    5.38       8.5  T
   4   -253.6920885 -0.159742E-07  0.617E-04    5.38      14.4  T
   5   -253.6920885 -0.235241E-08  0.130E-04    5.38      68.4  T
     SCC iter.                  ...        0 min,  0.211 sec
     gradient                   ...        0 min,  0.171 sec
 * total energy  :  -251.1741741 Eh     change       -0.2170606E-04 Eh
   gradient norm :     0.0008775 Eh/α   predicted    -0.1065041E-04 ( -50.93%)
   displ. norm   :     0.1809883 α      lambda       -0.9558233E-05
   maximum displ.:     0.1268610 α      in ANC's #4, #3, #12, ...

........................................................................
.............................. CYCLE   31 ..............................
........................................................................

 iter      E             dE          RMSdq      gap      omega  full diag
   1   -253.6931173 -0.253693E+03  0.180E-02    5.38       0.0  T
   2   -253.6931176 -0.238129E-06  0.105E-02    5.38       1.0  T
   3   -253.6931177 -0.981536E-07  0.607E-04    5.38      14.7  T
   4   -253.6931177 -0.769583E-08  0.357E-04    5.38      25.0  T
     SCC iter.                  ...        0 min,  0.159 sec
     gradient                   ...        0 min,  0.211 sec
 * total energy  :  -251.1741849 Eh     change       -0.1076456E-04 Eh
   gradient norm :     0.0005843 Eh/α   predicted    -0.4855681E-05 ( -54.89%)
   displ. norm   :     0.1266698 α      lambda       -0.6789663E-05
   maximum displ.:     0.0863244 α      in ANC's #4, #3, #12, ...

........................................................................
.............................. CYCLE   32 ..............................
........................................................................

 iter      E             dE          RMSdq      gap      omega  full diag
   1   -253.6936995 -0.253694E+03  0.137E-02    5.38       0.0  T
   2   -253.6936997 -0.157205E-06  0.794E-03    5.38       1.1  T
   3   -253.6936998 -0.578605E-07  0.460E-04    5.38      19.4  T
   4   -253.6936998 -0.549315E-08  0.264E-04    5.38      33.8  T
     SCC iter.                  ...        0 min,  0.296 sec
     gradient                   ...        0 min,  0.216 sec
 * total energy  :  -251.1741930 Eh     change       -0.8070134E-05 Eh
   gradient norm :     0.0005993 Eh/α   predicted    -0.3419690E-05 ( -57.63%)
   displ. norm   :     0.0786845 α      lambda       -0.5662747E-05
   maximum displ.:     0.0492269 α      in ANC's #12, #4, #3, ...

........................................................................
.............................. CYCLE   33 ..............................
........................................................................

 iter      E             dE          RMSdq      gap      omega  full diag
   1   -253.6939349 -0.253694E+03  0.103E-02    5.38       0.0  T
   2   -253.6939351 -0.152088E-06  0.590E-03    5.38       1.5  T
   3   -253.6939351 -0.391893E-07  0.413E-04    5.38      21.6  T
   4   -253.6939351 -0.419496E-08  0.210E-04    5.38      42.5  T
     SCC iter.                  ...        0 min,  0.286 sec
     gradient                   ...        0 min,  0.161 sec
 * total energy  :  -251.1741999 Eh     change       -0.6935995E-05 Eh
   gradient norm :     0.0006198 Eh/α   predicted    -0.2845112E-05 ( -58.98%)
   displ. norm   :     0.0891592 α      lambda       -0.6114966E-05
   maximum displ.:     0.0572120 α      in ANC's #12, #4, #3, ...

........................................................................
.............................. CYCLE   34 ..............................
........................................................................

 iter      E             dE          RMSdq      gap      omega  full diag
   1   -253.6934527 -0.253693E+03  0.123E-02    5.38       0.0  T
   2   -253.6934529 -0.273234E-06  0.701E-03    5.38       1.3  T
   3   -253.6934530 -0.660473E-07  0.548E-04    5.38      16.2  T
   4   -253.6934530 -0.597601E-08  0.266E-04    5.38      33.5  T
     SCC iter.                  ...        0 min,  0.287 sec
     gradient                   ...        0 min,  0.192 sec
 * total energy  :  -251.1742057 Eh     change       -0.5799807E-05 Eh
   gradient norm :     0.0004683 Eh/α   predicted    -0.3074788E-05 ( -46.98%)
   displ. norm   :     0.0215033 α      lambda       -0.2053929E-05
   maximum displ.:     0.0080187 α      in ANC's #3, #12, #10, ...

........................................................................
.............................. CYCLE   35 ..............................
........................................................................

 iter      E             dE          RMSdq      gap      omega  full diag
   1   -253.6933959 -0.253693E+03  0.447E-03    5.38       0.0  T
   2   -253.6933960 -0.474897E-07  0.256E-03    5.38       3.5  T
   3   -253.6933960 -0.111224E-07  0.262E-04    5.38      34.0  T
   4   -253.6933960 -0.114514E-08  0.125E-04    5.38      71.0  T
     SCC iter.                  ...        0 min,  0.307 sec
     gradient                   ...        0 min,  0.189 sec
 * total energy  :  -251.1742081 Eh     change       -0.2361056E-05 Eh
   gradient norm :     0.0003626 Eh/α   predicted    -0.1027743E-05 ( -56.47%)
   displ. norm   :     0.0273844 α      lambda       -0.2139012E-05
   maximum displ.:     0.0154610 α      in ANC's #3, #63, #10, ...

........................................................................
.............................. CYCLE   36 ..............................
........................................................................

 iter      E             dE          RMSdq      gap      omega  full diag
   1   -253.6930147 -0.253693E+03  0.564E-03    5.38       0.0  T
   2   -253.6930148 -0.487784E-07  0.327E-03    5.38       2.7  T
   3   -253.6930148 -0.140872E-07  0.284E-04    5.38      31.3  T
   4   -253.6930148 -0.165872E-08  0.148E-04    5.38      60.4  T
     SCC iter.                  ...        0 min,  0.279 sec
     gradient                   ...        0 min,  0.232 sec
 * total energy  :  -251.1742100 Eh     change       -0.1959474E-05 Eh
   gradient norm :     0.0001835 Eh/α   predicted    -0.1071416E-05 ( -45.32%)
   displ. norm   :     0.0108219 α      lambda       -0.4048108E-06
   maximum displ.:     0.0076331 α      in ANC's #12, #3, #63, ...

........................................................................
.............................. CYCLE   37 ..............................
........................................................................

 iter      E             dE          RMSdq      gap      omega  full diag
   1   -253.6930742 -0.253693E+03  0.209E-03    5.38       0.0  T
   2   -253.6930742 -0.354365E-08  0.123E-03    5.38       7.2  T
   3   -253.6930742 -0.125132E-08  0.816E-05    5.38     109.2  T
   4   -253.6930742 -0.217028E-09  0.465E-05    5.38     191.8  T
     SCC iter.                  ...        0 min,  0.234 sec
     gradient                   ...        0 min,  0.167 sec
 * total energy  :  -251.1742105 Eh     change       -0.4505384E-06 Eh
   gradient norm :     0.0001446 Eh/α   predicted    -0.2067540E-06 ( -54.11%)
   displ. norm   :     0.0090812 α      lambda       -0.2239993E-06
   maximum displ.:     0.0053393 α      in ANC's #12, #3, #1, ...

........................................................................
.............................. CYCLE   38 ..............................
........................................................................

 iter      E             dE          RMSdq      gap      omega  full diag
   1   -253.6932165 -0.253693E+03  0.158E-03    5.38       0.0  T
   2   -253.6932165 -0.261986E-08  0.927E-04    5.38       9.6  T
   3   -253.6932165 -0.675158E-09  0.723E-05    5.38     123.2  T
     SCC iter.                  ...        0 min,  0.230 sec
     gradient                   ...        0 min,  0.133 sec
 * total energy  :  -251.1742107 Eh     change       -0.2236508E-06 Eh
   gradient norm :     0.0000869 Eh/α   predicted    -0.1143312E-06 ( -48.88%)
   displ. norm   :     0.0068487 α      lambda        0.4723062E-07
   maximum displ.:     0.0042280 α      in ANC's #12, #3, #1, ...

........................................................................
.............................. CYCLE   39 ..............................
........................................................................

 iter      E             dE          RMSdq      gap      omega  full diag
   1   -253.6933416 -0.253693E+03  0.122E-03    5.38       0.0  T
   2   -253.6933416 -0.175086E-08  0.719E-04    5.38      12.4  T
   3   -253.6933416 -0.439002E-09  0.579E-05    5.38     153.9  T
     SCC iter.                  ...        0 min,  0.108 sec
     gradient                   ...        0 min,  0.189 sec
 * total energy  :  -251.1742107 Eh     change        0.2075615E-07 Eh
   gradient norm :     0.0001907 Eh/α   predicted     0.1885265E-07 (  -9.17%)
   displ. norm   :     0.0042614 α      lambda       -0.1341034E-06
   maximum displ.:     0.0028006 α      in ANC's #12, #4, #63, ...

........................................................................
.............................. CYCLE   40 ..............................
........................................................................

 iter      E             dE          RMSdq      gap      omega  full diag
   1   -253.6932858 -0.253693E+03  0.886E-04    5.38       0.0  T
   2   -253.6932858 -0.225762E-08  0.516E-04    5.38      17.3  T
   3   -253.6932858 -0.124999E-09  0.729E-05    5.38     122.2  T
     SCC iter.                  ...        0 min,  0.117 sec
     gradient                   ...        0 min,  0.181 sec
 * total energy  :  -251.1742108 Eh     change       -0.1552837E-06 Eh
   gradient norm :     0.0000779 Eh/α   predicted    -0.7101092E-07 ( -54.27%)
   displ. norm   :     0.0059906 α      lambda       -0.1321768E-06
   maximum displ.:     0.0036778 α      in ANC's #4, #12, #1, ...

........................................................................
.............................. CYCLE   41 ..............................
........................................................................

 iter      E             dE          RMSdq      gap      omega  full diag
   1   -253.6932294 -0.253693E+03  0.104E-03    5.38       0.0  T
   2   -253.6932294 -0.125488E-08  0.606E-04    5.38      14.7  T
   3   -253.6932294 -0.396994E-09  0.447E-05    5.38     199.2  T
     SCC iter.                  ...        0 min,  0.202 sec
     gradient                   ...        0 min,  0.139 sec
 * total energy  :  -251.1742110 Eh     change       -0.1565937E-06 Eh
   gradient norm :     0.0000764 Eh/α   predicted    -0.6813914E-07 ( -56.49%)
   displ. norm   :     0.0098631 α      lambda       -0.1382452E-06
   maximum displ.:     0.0061286 α      in ANC's #4, #1, #3, ...

........................................................................
.............................. CYCLE   42 ..............................
........................................................................

 iter      E             dE          RMSdq      gap      omega  full diag
   1   -253.6931897 -0.253693E+03  0.117E-03    5.38       0.0  T
   2   -253.6931897 -0.156504E-08  0.682E-04    5.38      13.1  T
   3   -253.6931897 -0.522277E-09  0.505E-05    5.38     176.3  T
     SCC iter.                  ...        0 min,  0.170 sec
     gradient                   ...        0 min,  0.213 sec
 * total energy  :  -251.1742112 Eh     change       -0.1825463E-06 Eh
   gradient norm :     0.0001074 Eh/α   predicted    -0.7245956E-07 ( -60.31%)
   displ. norm   :     0.0141257 α      lambda       -0.1666185E-06
   maximum displ.:     0.0082446 α      in ANC's #4, #1, #3, ...
 * RMSD in coord.:     0.2132627 α      energy gain  -0.3842516E-03 Eh

generating ANC from model Hessian ...
Using Lindh-Hessian (1995)
 Shifting diagonal of input Hessian by   9.529085436776835E-003
 Lowest  eigenvalues of input Hessian
    0.000000    0.000000    0.000000    0.000000    0.000000    0.000000
    0.010000    0.010001    0.010433    0.010436    0.012538    0.012539
    0.013498    0.013516    0.013873    0.013888    0.013895    0.015479
 Highest eigenvalues
    2.526583    2.526651    2.527665    2.530809    2.530872    2.532695
 

........................................................................
.............................. CYCLE   43 ..............................
........................................................................

 iter      E             dE          RMSdq      gap      omega  full diag
   1   -253.6931622 -0.253693E+03  0.138E-03    5.38       0.0  T
   2   -253.6931622 -0.220805E-08  0.802E-04    5.38      11.1  T
   3   -253.6931622 -0.705029E-09  0.586E-05    5.38     152.0  T
     SCC iter.                  ...        0 min,  0.182 sec
     gradient                   ...        0 min,  0.147 sec
 * total energy  :  -251.1742114 Eh     change       -0.2309083E-06 Eh
   gradient norm :     0.0000997 Eh/α   predicted     0.0000000E+00 (-100.00%)
   displ. norm   :     0.0001495 α      lambda        0.0000000E+00
   maximum displ.:     0.0000557 α      in ANC's #349, #324, #323, ...

........................................................................
.............................. CYCLE   44 ..............................
........................................................................

 iter      E             dE          RMSdq      gap      omega  full diag
   1   -253.6931763 -0.253693E+03  0.117E-04    5.38       0.0  T
   2   -253.6931763 -0.100189E-08  0.586E-05    5.38     152.0  T
   3   -253.6931763 -0.255227E-10  0.337E-05    5.38     264.7  T
     SCC iter.                  ...        0 min,  0.184 sec
     gradient                   ...        0 min,  0.204 sec
 * total energy  :  -251.1742114 Eh     change       -0.7662720E-08 Eh
   gradient norm :     0.0000723 Eh/α   predicted    -0.3965247E-08 ( -48.25%)
   displ. norm   :     0.0001495 α      lambda        0.0000000E+00
   maximum displ.:     0.0000557 α      in ANC's #349, #324, #323, ...

........................................................................
.............................. CYCLE   45 ..............................
........................................................................

 iter      E             dE          RMSdq      gap      omega  full diag
   1   -253.6931904 -0.253693E+03  0.114E-04    5.38       0.0  T
   2   -253.6931904 -0.981686E-09  0.578E-05    5.38     154.1  T
   3   -253.6931904 -0.228511E-10  0.334E-05    5.38     266.7  T
     SCC iter.                  ...        0 min,  0.254 sec
     gradient                   ...        0 min,  0.167 sec
 * total energy  :  -251.1742114 Eh     change        0.6967980E-08 Eh
   gradient norm :     0.0001730 Eh/α   predicted     0.4532345E-08 ( -34.95%)
   displ. norm   :     0.0032495 α      lambda       -0.7055441E-07
   maximum displ.:     0.0025983 α      in ANC's #4, #3, #13, ...

........................................................................
.............................. CYCLE   46 ..............................
........................................................................

 iter      E             dE          RMSdq      gap      omega  full diag
   1   -253.6932349 -0.253693E+03  0.341E-04    5.38       0.0  T
   2   -253.6932349 -0.165787E-08  0.192E-04    5.38      46.4  T
   3   -253.6932349 -0.430305E-10  0.644E-05    5.38     138.3  T
     SCC iter.                  ...        0 min,  0.154 sec
     gradient                   ...        0 min,  0.178 sec
 * total energy  :  -251.1742115 Eh     change       -0.9868629E-07 Eh
   gradient norm :     0.0000474 Eh/α   predicted    -0.3883008E-07 ( -60.65%)
   displ. norm   :     0.0077479 α      lambda       -0.1196368E-06
   maximum displ.:     0.0055967 α      in ANC's #4, #3, #13, ...

........................................................................
.............................. CYCLE   47 ..............................
........................................................................

 iter      E             dE          RMSdq      gap      omega  full diag
   1   -253.6932385 -0.253693E+03  0.783E-04    5.38       0.0  T
   2   -253.6932385 -0.215505E-08  0.455E-04    5.38      19.6  T
   3   -253.6932385 -0.175021E-09  0.596E-05    5.38     149.6  T
     SCC iter.                  ...        0 min,  0.231 sec
     gradient                   ...        0 min,  0.210 sec
 * total energy  :  -251.1742117 Eh     change       -0.1599686E-06 Eh
   gradient norm :     0.0001285 Eh/α   predicted    -0.6634052E-07 ( -58.53%)
   displ. norm   :     0.0097471 α      lambda       -0.1150113E-06
   maximum displ.:     0.0067596 α      in ANC's #4, #3, #13, ...

........................................................................
.............................. CYCLE   48 ..............................
........................................................................

 iter      E             dE          RMSdq      gap      omega  full diag
   1   -253.6932414 -0.253693E+03  0.951E-04    5.38       0.0  T
   2   -253.6932414 -0.787736E-09  0.555E-04    5.38      16.0  T
   3   -253.6932414 -0.305050E-09  0.363E-05    5.38     245.3  T
     SCC iter.                  ...        0 min,  0.228 sec
     gradient                   ...        0 min,  0.210 sec
 * total energy  :  -251.1742118 Eh     change       -0.1469380E-06 Eh
   gradient norm :     0.0001503 Eh/α   predicted    -0.6050331E-07 ( -58.82%)
   displ. norm   :     0.0104911 α      lambda       -0.1067058E-06
   maximum displ.:     0.0070877 α      in ANC's #4, #3, #1, ...

........................................................................
.............................. CYCLE   49 ..............................
........................................................................

 iter      E             dE          RMSdq      gap      omega  full diag
   1   -253.6932349 -0.253693E+03  0.960E-04    5.38       0.0  T
   2   -253.6932349 -0.915804E-09  0.559E-04    5.38      15.9  T
   3   -253.6932349 -0.311843E-09  0.377E-05    5.38     236.2  T
     SCC iter.                  ...        0 min,  0.214 sec
     gradient                   ...        0 min,  0.155 sec
 * total energy  :  -251.1742119 Eh     change       -0.1418353E-06 Eh
   gradient norm :     0.0001100 Eh/α   predicted    -0.5471638E-07 ( -61.42%)
   displ. norm   :     0.0131751 α      lambda       -0.1309649E-06
   maximum displ.:     0.0087240 α      in ANC's #4, #3, #1, ...

........................................................................
.............................. CYCLE   50 ..............................
........................................................................

 iter      E             dE          RMSdq      gap      omega  full diag
   1   -253.6932211 -0.253693E+03  0.114E-03    5.38       0.0  T
   2   -253.6932211 -0.145997E-08  0.665E-04    5.38      13.4  T
   3   -253.6932211 -0.429907E-09  0.451E-05    5.38     197.7  T
     SCC iter.                  ...        0 min,  0.162 sec
     gradient                   ...        0 min,  0.180 sec
 * total energy  :  -251.1742121 Eh     change       -0.1763993E-06 Eh
   gradient norm :     0.0000593 Eh/α   predicted    -0.6651428E-07 ( -62.29%)
   displ. norm   :     0.0202970 α      lambda       -0.1993689E-06
   maximum displ.:     0.0132761 α      in ANC's #4, #3, #1, ...

........................................................................
.............................. CYCLE   51 ..............................
........................................................................

 iter      E             dE          RMSdq      gap      omega  full diag
   1   -253.6932087 -0.253693E+03  0.173E-03    5.38       0.0  T
   2   -253.6932087 -0.319463E-08  0.100E-03    5.38       8.9  T
   3   -253.6932087 -0.955708E-09  0.667E-05    5.38     133.7  T
   4   -253.6932087 -0.886189E-10  0.376E-05    5.38     236.7  T
     SCC iter.                  ...        0 min,  0.338 sec
     gradient                   ...        0 min,  0.164 sec
 * total energy  :  -251.1742124 Eh     change       -0.2623616E-06 Eh
   gradient norm :     0.0000874 Eh/α   predicted    -0.1022701E-06 ( -61.02%)
   displ. norm   :     0.0328069 α      lambda       -0.2721403E-06
   maximum displ.:     0.0212974 α      in ANC's #4, #3, #1, ...

........................................................................
.............................. CYCLE   52 ..............................
........................................................................

 iter      E             dE          RMSdq      gap      omega  full diag
   1   -253.6931935 -0.253693E+03  0.279E-03    5.38       0.0  T
   2   -253.6931935 -0.656834E-08  0.162E-03    5.38       5.5  T
   3   -253.6931935 -0.250162E-08  0.978E-05    5.38      91.1  T
   4   -253.6931935 -0.130910E-09  0.573E-05    5.38     155.5  T
     SCC iter.                  ...        0 min,  0.261 sec
     gradient                   ...        0 min,  0.205 sec
 * total energy  :  -251.1742127 Eh     change       -0.3368241E-06 Eh
   gradient norm :     0.0001304 Eh/α   predicted    -0.1373863E-06 ( -59.21%)
   displ. norm   :     0.0312896 α      lambda       -0.1762350E-06
   maximum displ.:     0.0203762 α      in ANC's #4, #3, #1, ...

........................................................................
.............................. CYCLE   53 ..............................
........................................................................

 iter      E             dE          RMSdq      gap      omega  full diag
   1   -253.6932078 -0.253693E+03  0.264E-03    5.38       0.0  T
   2   -253.6932078 -0.554226E-08  0.153E-03    5.38       5.8  T
   3   -253.6932078 -0.222880E-08  0.910E-05    5.38      97.9  T
   4   -253.6932078 -0.110418E-09  0.533E-05    5.38     167.0  T
     SCC iter.                  ...        0 min,  0.278 sec
     gradient                   ...        0 min,  0.250 sec
 * total energy  :  -251.1742129 Eh     change       -0.2095835E-06 Eh
   gradient norm :     0.0001053 Eh/α   predicted    -0.8950237E-07 ( -57.30%)
   displ. norm   :     0.0181822 α      lambda       -0.5319087E-07
   maximum displ.:     0.0119340 α      in ANC's #4, #3, #1, ...

........................................................................
.............................. CYCLE   54 ..............................
........................................................................

 iter      E             dE          RMSdq      gap      omega  full diag
   1   -253.6932194 -0.253693E+03  0.153E-03    5.38       0.0  T
   2   -253.6932194 -0.216102E-08  0.890E-04    5.38      10.0  T
   3   -253.6932194 -0.708582E-09  0.575E-05    5.38     155.0  T
     SCC iter.                  ...        0 min,  0.289 sec
     gradient                   ...        0 min,  0.222 sec
 * total energy  :  -251.1742130 Eh     change       -0.6894649E-07 Eh
   gradient norm :     0.0000418 Eh/α   predicted    -0.3044498E-07 ( -55.84%)
   displ. norm   :     0.0181822 α      lambda        0.0000000E+00
   maximum displ.:     0.0119340 α      in ANC's #4, #3, #1, ...

........................................................................
.............................. CYCLE   55 ..............................
........................................................................

 iter      E             dE          RMSdq      gap      omega  full diag
   1   -253.6932283 -0.253693E+03  0.153E-03    5.38       0.0  T
   2   -253.6932283 -0.207078E-08  0.891E-04    5.38      10.0  T
   3   -253.6932283 -0.741807E-09  0.559E-05    5.38     159.3  T
     SCC iter.                  ...        0 min,  0.332 sec
     gradient                   ...        0 min,  0.206 sec
 * total energy  :  -251.1742130 Eh     change       -0.1196076E-07 Eh
   gradient norm :     0.0000606 Eh/α   predicted    -0.1570083E-08 ( -86.87%)
   displ. norm   :     0.0114326 α      lambda        0.5977233E-07
   maximum displ.:     0.0073763 α      in ANC's #4, #3, #1, ...

........................................................................
.............................. CYCLE   56 ..............................
........................................................................

 iter      E             dE          RMSdq      gap      omega  full diag
   1   -253.6932406 -0.253693E+03  0.964E-04    5.38       0.0  T
   2   -253.6932406 -0.133588E-08  0.561E-04    5.38      15.9  T
   3   -253.6932406 -0.264492E-09  0.465E-05    5.38     191.5  T
     SCC iter.                  ...        0 min,  0.325 sec
     gradient                   ...        0 min,  0.148 sec
 * total energy  :  -251.1742130 Eh     change        0.3386472E-07 Eh
   gradient norm :     0.0001651 Eh/α   predicted     0.2523032E-07 ( -25.50%)
   displ. norm   :     0.0143922 α      lambda       -0.5026755E-07
   maximum displ.:     0.0090533 α      in ANC's #4, #3, #1, ...

........................................................................
.............................. CYCLE   57 ..............................
........................................................................

 iter      E             dE          RMSdq      gap      omega  full diag
   1   -253.6932244 -0.253693E+03  0.122E-03    5.38       0.0  T
   2   -253.6932244 -0.268483E-08  0.707E-04    5.38      12.6  T
   3   -253.6932244 -0.295785E-09  0.696E-05    5.38     128.0  T
     SCC iter.                  ...        0 min,  0.367 sec
     gradient                   ...        0 min,  0.216 sec
 * total energy  :  -251.1742130 Eh     change       -0.4575952E-07 Eh
   gradient norm :     0.0000206 Eh/α   predicted    -0.2657416E-07 ( -41.93%)
   displ. norm   :     0.0072234 α      lambda        0.4170891E-07
   maximum displ.:     0.0045702 α      in ANC's #4, #3, #1, ...

   *** GEOMETRY OPTIMIZATION CONVERGED AFTER 57 ITERATIONS ***

------------------------------------------------------------------------
 total energy gain   :        -0.0216762 Eh      -13.6020 kcal/mol
 total RMSD          :         0.4609685 a0        0.2439 Å
 total power (kW/mol):        -0.9984348 (step)   -1.7015 (real)
------------------------------------------------------------------------

 ANCopt (total)                0 d,  0 h,  0 min, 33.447 sec
 optimizer setup                ...        0 min,  0.002 sec (  0.006%)
 model hessian                  ...        0 min,  0.780 sec (  2.331%)
 ANC generation                 ...        0 min,  0.059 sec (  0.177%)
 coordinate transformation      ...        0 min,  0.079 sec (  0.235%)
 single point calculation       ...        0 min, 31.379 sec ( 93.817%)
 optimization log               ...        0 min,  0.842 sec (  2.518%)
 hessian update                 ...        0 min,  0.198 sec (  0.591%)
 rational function              ...        0 min,  0.043 sec (  0.129%)

================
 final structure:
================
HETATM    1  N   UNL     1       4.963  -1.595  -1.215  1.00  0.00           N  
HETATM    2  C   UNL     1       5.697  -1.334  -0.001  1.00  0.00           C  
HETATM    3  C   UNL     1       5.850   0.209  -0.001  1.00  0.00           C  
HETATM    4  N   UNL     1       5.183   0.609  -1.215  1.00  0.00           N  
HETATM    5  C   UNL     1       4.644  -0.450  -1.897  1.00  0.00           C  
HETATM    6  N   UNL     1       4.964  -1.595   1.213  1.00  0.00           N  
HETATM    7  C   UNL     1       4.645  -0.451   1.895  1.00  0.00           C  
HETATM    8  N   UNL     1       5.183   0.609   1.213  1.00  0.00           N  
HETATM    9  O   UNL     1       4.076  -0.393  -2.967  1.00  0.00           O  
HETATM   10  O   UNL     1       4.078  -0.394   2.965  1.00  0.00           O  
HETATM   11  N   UNL     1       4.349   2.886  -1.214  1.00  0.00           N  
HETATM   12  C   UNL     1       4.599   3.623  -0.000  1.00  0.00           C  
HETATM   13  C   UNL     1       3.483   4.700  -0.000  1.00  0.00           C  
HETATM   14  N   UNL     1       2.755   4.424  -1.213  1.00  0.00           N  
HETATM   15  C   UNL     1       3.250   3.343  -1.894  1.00  0.00           C  
HETATM   16  N   UNL     1       4.349   2.886   1.213  1.00  0.00           N  
HETATM   17  C   UNL     1       3.251   3.342   1.894  1.00  0.00           C  
HETATM   18  N   UNL     1       2.756   4.424   1.214  1.00  0.00           N  
HETATM   19  O   UNL     1       2.851   2.930  -2.962  1.00  0.00           O  
HETATM   20  O   UNL     1       2.852   2.929   2.962  1.00  0.00           O  
HETATM   21  N   UNL     1      -0.558  -5.181  -1.214  1.00  0.00           N  
HETATM   22  C   UNL     1      -1.097  -5.743   0.000  1.00  0.00           C  
HETATM   23  C   UNL     1      -2.567  -5.249   0.000  1.00  0.00           C  
HETATM   24  N   UNL     1      -2.658  -4.476  -1.214  1.00  0.00           N  
HETATM   25  C   UNL     1      -1.470  -4.419  -1.895  1.00  0.00           C  
HETATM   26  N   UNL     1      -0.558  -5.181   1.213  1.00  0.00           N  
HETATM   27  C   UNL     1      -1.470  -4.418   1.895  1.00  0.00           C  
HETATM   28  N   UNL     1      -2.658  -4.476   1.214  1.00  0.00           N  
HETATM   29  O   UNL     1      -1.288  -3.876  -2.964  1.00  0.00           O  
HETATM   30  O   UNL     1      -1.287  -3.875   2.963  1.00  0.00           O  
HETATM   31  N   UNL     1      -4.940   1.701  -1.213  1.00  0.00           N  
HETATM   32  C   UNL     1      -5.366   2.352   0.001  1.00  0.00           C  
HETATM   33  C   UNL     1      -4.556   3.674   0.001  1.00  0.00           C  
HETATM   34  N   UNL     1      -3.783   3.590  -1.213  1.00  0.00           N  
HETATM   35  C   UNL     1      -3.991   2.419  -1.894  1.00  0.00           C  
HETATM   36  N   UNL     1      -4.939   1.701   1.215  1.00  0.00           N  
HETATM   37  C   UNL     1      -3.991   2.419   1.895  1.00  0.00           C  
HETATM   38  N   UNL     1      -3.782   3.590   1.214  1.00  0.00           N  
HETATM   39  O   UNL     1      -3.502   2.120  -2.962  1.00  0.00           O  
HETATM   40  O   UNL     1      -3.501   2.119   2.963  1.00  0.00           O  
HETATM   41  N   UNL     1       0.452   5.186  -1.213  1.00  0.00           N  
HETATM   42  C   UNL     1       0.034   5.842   0.000  1.00  0.00           C  
HETATM   43  C   UNL     1      -1.504   5.645   0.001  1.00  0.00           C  
HETATM   44  N   UNL     1      -1.744   4.905  -1.213  1.00  0.00           N  
HETATM   45  C   UNL     1      -0.591   4.616  -1.894  1.00  0.00           C  
HETATM   46  N   UNL     1       0.453   5.185   1.214  1.00  0.00           N  
HETATM   47  C   UNL     1      -0.590   4.615   1.895  1.00  0.00           C  
HETATM   48  N   UNL     1      -1.744   4.904   1.214  1.00  0.00           N  
HETATM   49  O   UNL     1      -0.518   4.049  -2.964  1.00  0.00           O  
HETATM   50  O   UNL     1      -0.518   4.047   2.964  1.00  0.00           O  
HETATM   51  C   UNL     1      -3.895  -4.010  -1.777  1.00  0.00           C  
HETATM   52  C   UNL     1       5.263   1.929   1.775  1.00  0.00           C  
HETATM   53  C   UNL     1      -3.895  -4.011   1.778  1.00  0.00           C  
HETATM   54  C   UNL     1       5.262   1.930  -1.776  1.00  0.00           C  
HETATM   55  N   UNL     1       3.703  -3.668  -1.215  1.00  0.00           N  
HETATM   56  C   UNL     1       3.809  -4.439  -0.001  1.00  0.00           C  
HETATM   57  C   UNL     1       2.510  -5.285  -0.001  1.00  0.00           C  
HETATM   58  N   UNL     1       1.847  -4.876  -1.214  1.00  0.00           N  
HETATM   59  C   UNL     1       2.538  -3.908  -1.895  1.00  0.00           C  
HETATM   60  N   UNL     1       3.704  -3.668   1.212  1.00  0.00           N  
HETATM   61  C   UNL     1       2.540  -3.908   1.893  1.00  0.00           C  
HETATM   62  N   UNL     1       1.848  -4.876   1.213  1.00  0.00           N  
HETATM   63  O   UNL     1       2.225  -3.427  -2.963  1.00  0.00           O  
HETATM   64  O   UNL     1       2.227  -3.427   2.962  1.00  0.00           O  
HETATM   65  C   UNL     1       4.783  -2.905  -1.778  1.00  0.00           C  
HETATM   66  C   UNL     1       4.784  -2.905   1.776  1.00  0.00           C  
HETATM   67  C   UNL     1       0.712  -5.552   1.775  1.00  0.00           C  
HETATM   68  C   UNL     1       0.711  -5.553  -1.776  1.00  0.00           C  
HETATM   69  C   UNL     1       1.769   5.305  -1.777  1.00  0.00           C  
HETATM   70  C   UNL     1       1.770   5.305   1.777  1.00  0.00           C  
HETATM   71  C   UNL     1      -3.049   4.690  -1.776  1.00  0.00           C  
HETATM   72  C   UNL     1      -3.048   4.689   1.778  1.00  0.00           C  
HETATM   73  N   UNL     1      -5.172  -0.713   1.215  1.00  0.00           N  
HETATM   74  C   UNL     1      -5.716  -1.269   0.001  1.00  0.00           C  
HETATM   75  C   UNL     1      -5.176  -2.723   0.001  1.00  0.00           C  
HETATM   76  N   UNL     1      -4.400  -2.789   1.215  1.00  0.00           N  
HETATM   77  C   UNL     1      -4.382  -1.601   1.897  1.00  0.00           C  
HETATM   78  N   UNL     1      -5.172  -0.713  -1.213  1.00  0.00           N  
HETATM   79  C   UNL     1      -4.382  -1.600  -1.895  1.00  0.00           C  
HETATM   80  N   UNL     1      -4.400  -2.789  -1.213  1.00  0.00           N  
HETATM   81  O   UNL     1      -3.848  -1.402   2.967  1.00  0.00           O  
HETATM   82  O   UNL     1      -3.848  -1.402  -2.965  1.00  0.00           O  
HETATM   83  C   UNL     1      -5.583   0.545   1.776  1.00  0.00           C  
HETATM   84  C   UNL     1      -5.583   0.545  -1.774  1.00  0.00           C  
HETATM   85  H   UNL     1       6.637  -1.903  -0.002  1.00  0.00           H  
HETATM   86  H   UNL     1       6.884   0.580  -0.001  1.00  0.00           H  
HETATM   87  H   UNL     1       5.627   4.009  -0.000  1.00  0.00           H  
HETATM   88  H   UNL     1       3.832   5.741  -0.000  1.00  0.00           H  
HETATM   89  H   UNL     1      -0.965  -6.833   0.000  1.00  0.00           H  
HETATM   90  H   UNL     1      -3.330  -6.039   0.001  1.00  0.00           H  
HETATM   91  H   UNL     1      -6.458   2.467   0.001  1.00  0.00           H  
HETATM   92  H   UNL     1      -5.156   4.595   0.001  1.00  0.00           H  
HETATM   93  H   UNL     1       0.376   6.885   0.001  1.00  0.00           H  
HETATM   94  H   UNL     1      -2.099   6.568   0.001  1.00  0.00           H  
HETATM   95  H   UNL     1      -4.653  -4.793  -1.659  1.00  0.00           H  
HETATM   96  H   UNL     1      -3.696  -3.804  -2.835  1.00  0.00           H  
HETATM   97  H   UNL     1       4.998   1.832   2.834  1.00  0.00           H  
HETATM   98  H   UNL     1       6.285   2.304   1.652  1.00  0.00           H  
[...]
                            94  H   0.941
    44   7  N   3.422 --    45  C   1.139    71  C   0.986    43  C   0.983
                            49  O   0.141
    45   6  C   3.958 --    49  O   1.605    41  N   1.139    44  N   1.139
    46   7  N   3.422 --    47  C   1.139    70  C   0.986    42  C   0.983
                            50  O   0.141
    47   6  C   3.958 --    50  O   1.605    48  N   1.139    46  N   1.139
    48   7  N   3.422 --    47  C   1.139    72  C   0.986    43  C   0.983
                            50  O   0.141
    49   8  O   1.952 --    45  C   1.605    41  N   0.141    44  N   0.141
    50   8  O   1.952 --    47  C   1.605    46  N   0.141    48  N   0.141
    51   6  C   3.937 --    24  N   0.986    80  N   0.986    96  H   0.949
                            95  H   0.949
    52   6  C   3.937 --    16  N   0.986     8  N   0.986    97  H   0.949
                            98  H   0.949
    53   6  C   3.937 --    28  N   0.986    76  N   0.986    99  H   0.949
                           100  H   0.949
    54   6  C   3.937 --    11  N   0.986     4  N   0.986   101  H   0.949
                           102  H   0.949
    55   7  N   3.422 --    59  C   1.139    65  C   0.986    56  C   0.983
                            63  O   0.141
    56   6  C   3.958 --    60  N   0.983    55  N   0.983    57  C   0.956
                           103  H   0.941
    57   6  C   3.958 --    58  N   0.983    62  N   0.983    56  C   0.956
                           104  H   0.941
    58   7  N   3.422 --    59  C   1.139    68  C   0.986    57  C   0.983
                            63  O   0.141
    59   6  C   3.958 --    63  O   1.605    58  N   1.139    55  N   1.139
    60   7  N   3.422 --    61  C   1.139    66  C   0.986    56  C   0.983
                            64  O   0.141
    61   6  C   3.958 --    64  O   1.605    62  N   1.139    60  N   1.139
    62   7  N   3.422 --    61  C   1.139    67  C   0.986    57  C   0.983
                            64  O   0.141
    63   8  O   1.952 --    59  C   1.605    58  N   0.141    55  N   0.141
    64   8  O   1.952 --    61  C   1.605    62  N   0.141    60  N   0.141
    65   6  C   3.937 --    55  N   0.986     1  N   0.986   105  H   0.949
                           106  H   0.949
    66   6  C   3.937 --    60  N   0.986     6  N   0.986   107  H   0.949
                           108  H   0.949
    67   6  C   3.937 --    62  N   0.986    26  N   0.986   109  H   0.949
                           110  H   0.949
    68   6  C   3.937 --    58  N   0.986    21  N   0.986   111  H   0.949
                           112  H   0.949
    69   6  C   3.937 --    14  N   0.986    41  N   0.986   113  H   0.949
                           114  H   0.949
    70   6  C   3.937 --    18  N   0.986    46  N   0.986   115  H   0.949
                           116  H   0.949
    71   6  C   3.937 --    34  N   0.986    44  N   0.986   117  H   0.949
                           118  H   0.949
    72   6  C   3.937 --    38  N   0.986    48  N   0.986   120  H   0.949
                           119  H   0.949
    73   7  N   3.422 --    77  C   1.139    83  C   0.986    74  C   0.983
                            81  O   0.141
    74   6  C   3.958 --    73  N   0.983    78  N   0.983    75  C   0.956
                           121  H   0.941
    75   6  C   3.958 --    76  N   0.983    80  N   0.983    74  C   0.956
                           122  H   0.941
    76   7  N   3.422 --    77  C   1.139    53  C   0.986    75  C   0.983
                            81  O   0.141
    77   6  C   3.958 --    81  O   1.605    73  N   1.139    76  N   1.139
    78   7  N   3.422 --    79  C   1.139    84  C   0.986    74  C   0.983
                            82  O   0.141
    79   6  C   3.958 --    82  O   1.605    78  N   1.139    80  N   1.139
    80   7  N   3.422 --    79  C   1.139    51  C   0.986    75  C   0.983
                            82  O   0.141
    81   8  O   1.952 --    77  C   1.605    73  N   0.141    76  N   0.141
    82   8  O   1.952 --    79  C   1.605    78  N   0.141    80  N   0.141
    83   6  C   3.937 --    36  N   0.986    73  N   0.986   123  H   0.949
                           124  H   0.949
    84   6  C   3.937 --    31  N   0.986    78  N   0.986   126  H   0.949
                           125  H   0.949
    85   1  H   0.989 --     2  C   0.941
    86   1  H   0.989 --     3  C   0.941
    87   1  H   0.989 --    12  C   0.941
    88   1  H   0.989 --    13  C   0.941
    89   1  H   0.989 --    22  C   0.941
    90   1  H   0.989 --    23  C   0.941
    91   1  H   0.989 --    32  C   0.941
    92   1  H   0.989 --    33  C   0.941
    93   1  H   0.989 --    42  C   0.941
    94   1  H   0.989 --    43  C   0.941
    95   1  H   0.989 --    51  C   0.949
    96   1  H   0.987 --    51  C   0.949
    97   1  H   0.987 --    52  C   0.949
    98   1  H   0.989 --    52  C   0.949
    99   1  H   0.987 --    53  C   0.949
   100   1  H   0.989 --    53  C   0.949
   101   1  H   0.987 --    54  C   0.949
   102   1  H   0.989 --    54  C   0.949
   103   1  H   0.989 --    56  C   0.941
   104   1  H   0.989 --    57  C   0.941
   105   1  H   0.987 --    65  C   0.949
   106   1  H   0.989 --    65  C   0.949
   107   1  H   0.987 --    66  C   0.949
   108   1  H   0.989 --    66  C   0.949
   109   1  H   0.987 --    67  C   0.949
   110   1  H   0.989 --    67  C   0.949
   111   1  H   0.987 --    68  C   0.949
   112   1  H   0.989 --    68  C   0.949
   113   1  H   0.987 --    69  C   0.949
   114   1  H   0.989 --    69  C   0.949
   115   1  H   0.987 --    70  C   0.949
   116   1  H   0.989 --    70  C   0.949
   117   1  H   0.987 --    71  C   0.949
   118   1  H   0.989 --    71  C   0.949
   119   1  H   0.989 --    72  C   0.949
   120   1  H   0.987 --    72  C   0.949
   121   1  H   0.989 --    74  C   0.941
   122   1  H   0.989 --    75  C   0.941
   123   1  H   0.987 --    83  C   0.949
   124   1  H   0.989 --    83  C   0.949
   125   1  H   0.989 --    84  C   0.949
   126   1  H   0.987 --    84  C   0.949
 ---------------------------------------------------------------------------

Topologies differ in total number of bonds
Writing topology from bond orders to xtbtopo.mol

molecular dipole:
                 x           y           z       tot (Debye)
 q only:        0.001       0.003       0.000
   full:        0.001       0.002       0.000       0.006
molecular quadrupole (traceless):
                xx          xy          yy          xz          yz          zz
 q only:      163.749      -0.095     163.794      -0.086       0.034    -327.543
  q+dip:      173.839      -0.055     173.978      -0.092       0.036    -347.817
   full:      173.341      -0.055     173.472      -0.092       0.036    -346.814

           -------------------------------------------------
          |                Geometry Summary                 |
           -------------------------------------------------

      molecular mass/u    :     1162.9637781
   center of mass at/Å    :        0.0000074       0.0000425      -0.0000172
  moments of inertia/u·Å² :        0.1919582E+05   0.1925124E+05   0.3078403E+05
rotational constants/cm⁻¹ :        0.8781928E-03   0.8756649E-03   0.5476097E-03

 * 147 selected distances

     #   Z          #   Z                                           value/Å
     1   7  N       2   6  C                                      1.4417684
     2   6  C       3   6  C                                      1.5504770
     3   6  C       4   7  N                                      1.4416883
     1   7  N       5   6  C                                      1.3703139
     4   7  N       5   6  C                                      1.3702604
     2   6  C       6   7  N                                      1.4417438
     6   7  N       7   6  C                                      1.3702967
     3   6  C       8   7  N                                      1.4417055
     7   6  C       8   7  N                                      1.3702704
     5   6  C       9   8  O                                      1.2125944
     7   6  C      10   8  O                                      1.2125937
    11   7  N      12   6  C                                      1.4417619
    12   6  C      13   6  C                                      1.5505814
    13   6  C      14   7  N                                      1.4417971
    11   7  N      15   6  C                                      1.3702577
    14   7  N      15   6  C                                      1.3703067
    12   6  C      16   7  N                                      1.4417650
    16   7  N      17   6  C                                      1.3702694
    13   6  C      18   7  N                                      1.4417846
    17   6  C      18   7  N                                      1.3703019
    15   6  C      19   8  O                                      1.2125939
    17   6  C      20   8  O                                      1.2125926
    21   7  N      22   6  C                                      1.4417263
    22   6  C      23   6  C                                      1.5505302
    23   6  C      24   7  N                                      1.4418421
    21   7  N      25   6  C                                      1.3702359
    24   7  N      25   6  C                                      1.3703555
    22   6  C      26   7  N                                      1.4417316
    26   7  N      27   6  C                                      1.3702361
    23   6  C      28   7  N                                      1.4418419
    27   6  C      28   7  N                                      1.3703697
    25   6  C      29   8  O                                      1.2126055
    27   6  C      30   8  O                                      1.2126056
    31   7  N      32   6  C                                      1.4418184
    32   6  C      33   6  C                                      1.5506507 (max)
    33   6  C      34   7  N                                      1.4418077
    31   7  N      35   6  C                                      1.3702321
    34   7  N      35   6  C                                      1.3703172
    32   6  C      36   7  N                                      1.4418194
    36   7  N      37   6  C                                      1.3702368
    33   6  C      38   7  N                                      1.4418035
    37   6  C      38   7  N                                      1.3703034
    35   6  C      39   8  O                                      1.2125964
    37   6  C      40   8  O                                      1.2125971
    41   7  N      42   6  C                                      1.4416994
    42   6  C      43   6  C                                      1.5504610
    43   6  C      44   7  N                                      1.4417133
    41   7  N      45   6  C                                      1.3703043
    44   7  N      45   6  C                                      1.3702987
    42   6  C      46   7  N                                      1.4417101
    46   7  N      47   6  C                                      1.3703120
    43   6  C      48   7  N                                      1.4417115
    47   6  C      48   7  N                                      1.3702994
    45   6  C      49   8  O                                      1.2126056
    47   6  C      50   8  O                                      1.2126056
    24   7  N      51   6  C                                      1.4372026
     8   7  N      52   6  C                                      1.4371820
    16   7  N      52   6  C                                      1.4371283
    28   7  N      53   6  C                                      1.4372236
     4   7  N      54   6  C                                      1.4371772
    11   7  N      54   6  C                                      1.4371251
    55   7  N      56   6  C                                      1.4417993
    56   6  C      57   6  C                                      1.5505885
    57   6  C      58   7  N                                      1.4417583
    55   7  N      59   6  C                                      1.3703056
    58   7  N      59   6  C                                      1.3702592
    56   6  C      60   7  N                                      1.4417868
    60   7  N      61   6  C                                      1.3703070
    57   6  C      62   7  N                                      1.4417754
    61   6  C      62   7  N                                      1.3702552
    59   6  C      63   8  O                                      1.2125981
    61   6  C      64   8  O                                      1.2125985
     1   7  N      65   6  C                                      1.4372133
    55   7  N      65   6  C                                      1.4371767
     6   7  N      66   6  C                                      1.4371962
    60   7  N      66   6  C                                      1.4371842
    26   7  N      67   6  C                                      1.4371508
    62   7  N      67   6  C                                      1.4371143
    21   7  N      68   6  C                                      1.4371513
    58   7  N      68   6  C                                      1.4371175
    14   7  N      69   6  C                                      1.4371419
    41   7  N      69   6  C                                      1.4371727
    18   7  N      70   6  C                                      1.4371287
    46   7  N      70   6  C                                      1.4371926
    34   7  N      71   6  C                                      1.4371534
    44   7  N      71   6  C                                      1.4372192
    38   7  N      72   6  C                                      1.4371394
    48   7  N      72   6  C                                      1.4372209
    73   7  N      74   6  C                                      1.4417265
    74   6  C      75   6  C                                      1.5505090
    53   6  C      76   7  N                                      1.4372082
    75   6  C      76   7  N                                      1.4418139
    73   7  N      77   6  C                                      1.3702123
    76   7  N      77   6  C                                      1.3703292
    74   6  C      78   7  N                                      1.4417357
    78   7  N      79   6  C                                      1.3702155
    51   6  C      80   7  N                                      1.4372222
    75   6  C      80   7  N                                      1.4418183
    79   6  C      80   7  N                                      1.3703322
    77   6  C      81   8  O                                      1.2125983
    79   6  C      82   8  O                                      1.2126001
    36   7  N      83   6  C                                      1.4371507
    73   7  N      83   6  C                                      1.4371965
    31   7  N      84   6  C                                      1.4371412
    78   7  N      84   6  C                                      1.4372120
     2   6  C      85   1  H                                      1.0983964
     3   6  C      86   1  H                                      1.0984125
    12   6  C      87   1  H                                      1.0983582
    13   6  C      88   1  H                                      1.0983462
    22   6  C      89   1  H                                      1.0983655
    23   6  C      90   1  H                                      1.0983714
    32   6  C      91   1  H                                      1.0983379
    33   6  C      92   1  H                                      1.0983758
    42   6  C      93   1  H                                      1.0983974
    43   6  C      94   1  H                                      1.0983675
    51   6  C      95   1  H                                      1.0961255
    51   6  C      96   1  H                                      1.0961826
    52   6  C      97   1  H                                      1.0962163
    52   6  C      98   1  H                                      1.0959939
    53   6  C      99   1  H                                      1.0961829
    53   6  C     100   1  H                                      1.0961249
    54   6  C     101   1  H                                      1.0962140
    54   6  C     102   1  H                                      1.0959892
    56   6  C     103   1  H                                      1.0983761
    57   6  C     104   1  H                                      1.0983488
    65   6  C     105   1  H                                      1.0962086
    65   6  C     106   1  H                                      1.0960735
    66   6  C     107   1  H                                      1.0962054
    66   6  C     108   1  H                                      1.0960677
    67   6  C     109   1  H                                      1.0962027
    67   6  C     110   1  H                                      1.0960022
    68   6  C     111   1  H                                      1.0962022
    68   6  C     112   1  H                                      1.0960000
    69   6  C     113   1  H                                      1.0962109
    69   6  C     114   1  H                                      1.0960618
    70   6  C     115   1  H                                      1.0962108
    70   6  C     116   1  H                                      1.0960606
    71   6  C     117   1  H                                      1.0962085
    71   6  C     118   1  H                                      1.0960721
    72   6  C     119   1  H                                      1.0960710
    72   6  C     120   1  H                                      1.0962076
    74   6  C     121   1  H                                      1.0984079
    75   6  C     122   1  H                                      1.0983935
    83   6  C     123   1  H                                      1.0962037
    83   6  C     124   1  H                                      1.0959617 (min)
    84   6  C     125   1  H                                      1.0959621
    84   6  C     126   1  H                                      1.0962034

 * 4 distinct bonds (by element types)

   Z      Z             #   av. dist./Å        max./Å        min./Å
   1 H    6 C          42     1.0968734     1.0984125     1.0959617
   6 C    6 C           7     1.5505425     1.5506507     1.5504610
   6 C    7 N          84     1.4164082     1.4418421     1.3702123
   6 C    8 O          14     1.2125990     1.2126056     1.2125926


optimized geometry written to: xtbopt.pdb


           -------------------------------------------------
          | TOTAL ENERGY             -251.174213021225 Eh   |
          | GRADIENT NORM               0.000020380524 Eh/α |
          | HOMO-LUMO GAP               5.380721264985 eV   |
           -------------------------------------------------

------------------------------------------------------------------------
 * finished run on 2023/06/02 at 16:44:48.218     
------------------------------------------------------------------------
 total:
 * wall-time:     0 d,  0 h,  0 min, 35.311 sec
 *  cpu-time:     0 d,  0 h,  4 min, 16.344 sec
 * ratio c/w:     7.260 speedup
 SCF:
 * wall-time:     0 d,  0 h,  0 min,  1.090 sec
 *  cpu-time:     0 d,  0 h,  0 min,  7.937 sec
 * ratio c/w:     7.283 speedup
 ANC optimizer:
 * wall-time:     0 d,  0 h,  0 min, 33.966 sec
 *  cpu-time:     0 d,  0 h,  4 min,  6.704 sec
 * ratio c/w:     7.263 speedup

