126
 energy: -251.152536847734 gnorm: 0.106742629770 xtb: 6.6.0 (8843059)
 N           4.91600000000000       -1.50300000000000       -1.20900000000000
 C           5.68700000000000       -1.33600000000000        0.00100000000000
 C           5.83100000000000        0.21200000000000        0.11600000000000
 N           5.35300000000000        0.68500000000000       -1.15100000000000
 C           4.82700000000000       -0.32600000000000       -1.94100000000000
 N           5.05000000000000       -1.70100000000000        1.23200000000000
 C           4.66300000000000       -0.60500000000000        1.98700000000000
 N           5.02900000000000        0.52900000000000        1.27400000000000
 O           4.42600000000000       -0.21200000000000       -3.07400000000000
 O           4.16000000000000       -0.63400000000000        3.08500000000000
 N           4.50500000000000        2.96600000000000       -1.11400000000000
 C           4.57800000000000        3.59700000000000        0.17300000000000
 C           3.46500000000000        4.68900000000000        0.10400000000000
 N           2.80800000000000        4.41300000000000       -1.14900000000000
 C           3.49100000000000        3.47500000000000       -1.91100000000000
 N           4.18900000000000        2.80000000000000        1.30900000000000
 C           3.14100000000000        3.36500000000000        2.02200000000000
 N           2.70400000000000        4.46300000000000        1.29900000000000
 O           3.28200000000000        3.19900000000000       -3.06800000000000
 O           2.72800000000000        3.00500000000000        3.09800000000000
 N          -0.62500000000000       -5.06000000000000       -1.23600000000000
 C          -1.09200000000000       -5.73300000000000       -0.04700000000000
 C          -2.56600000000000       -5.24100000000000        0.07900000000000
 N          -2.80500000000000       -4.58900000000000       -1.17600000000000
 C          -1.66500000000000       -4.48700000000000       -1.95700000000000
 N          -0.50300000000000       -5.33400000000000        1.19800000000000
 C          -1.34800000000000       -4.55200000000000        1.96900000000000
 N          -2.52900000000000       -4.40200000000000        1.25300000000000
 O          -1.60200000000000       -4.04000000000000       -3.07700000000000
 O          -1.12200000000000       -4.13500000000000        3.08000000000000
 N          -5.03100000000000        1.65800000000000       -1.25500000000000
 C          -5.35000000000000        2.34000000000000       -0.03400000000000
 C          -4.53300000000000        3.66400000000000       -0.13800000000000
 N          -3.69200000000000        3.44100000000000       -1.28800000000000
 C          -4.06000000000000        2.30700000000000       -2.00000000000000
 N          -4.86300000000000        1.74900000000000        1.19000000000000
 C          -4.09100000000000        2.63500000000000        1.93000000000000
 N          -3.87800000000000        3.75000000000000        1.13600000000000
 O          -3.65600000000000        1.98000000000000       -3.09000000000000
 O          -3.72500000000000        2.48900000000000        3.07200000000000
 N           0.52200000000000        5.22200000000000       -1.28300000000000
 C           0.04000000000000        5.83300000000000       -0.07800000000000
 C          -1.50400000000000        5.62500000000000       -0.16100000000000
 N          -1.65800000000000        4.75600000000000       -1.30100000000000
 C          -0.47700000000000        4.60000000000000       -2.01300000000000
 N           0.39200000000000        5.19000000000000        1.16500000000000
 C          -0.72400000000000        4.84900000000000        1.91800000000000
 N          -1.83500000000000        5.07400000000000        1.12200000000000
 O          -0.35300000000000        4.07600000000000       -3.09500000000000
 O          -0.73000000000000        4.48600000000000        3.07000000000000
 C          -4.08900000000000       -4.14200000000000       -1.64300000000000
 C           5.04300000000000        1.81600000000000        1.91600000000000
 C          -3.71100000000000       -3.90200000000000        1.90300000000000
 C           5.47400000000000        2.03600000000000       -1.62600000000000
 N           3.67400000000000       -3.58200000000000       -1.32300000000000
 C           3.79800000000000       -4.41400000000000       -0.15900000000000
 C           2.48600000000000       -5.26100000000000       -0.17600000000000
 N           1.77700000000000       -4.75200000000000       -1.32000000000000
 C           2.50700000000000       -3.81400000000000       -2.03400000000000
 N           3.75100000000000       -3.75300000000000        1.11900000000000
 C           2.68500000000000       -4.17100000000000        1.90200000000000
 N           1.90500000000000       -5.00200000000000        1.11300000000000
 O           2.21200000000000       -3.33700000000000       -3.10300000000000
 O           2.50500000000000       -3.91200000000000        3.06700000000000
 C           4.73300000000000       -2.77400000000000       -1.85900000000000
 C           4.86400000000000       -3.04700000000000        1.69800000000000
 C           0.79600000000000       -5.73500000000000        1.66300000000000
 C           0.61700000000000       -5.38100000000000       -1.88800000000000
 C           1.87000000000000        5.31400000000000       -1.76800000000000
 C           1.67900000000000        5.33600000000000        1.79500000000000
 C          -2.92600000000000        4.48100000000000       -1.92100000000000
 C          -3.17300000000000        4.90500000000000        1.62100000000000
 N          -5.13200000000000       -0.65900000000000        1.31800000000000
 C          -5.69200000000000       -1.25600000000000        0.13900000000000
 C          -5.14800000000000       -2.71900000000000        0.18100000000000
 N          -4.26300000000000       -2.71200000000000        1.31600000000000
 C          -4.31700000000000       -1.52400000000000        2.03000000000000
 N          -5.21800000000000       -0.76100000000000       -1.12900000000000
 C          -4.63300000000000       -1.75200000000000       -1.90300000000000
 N          -4.54100000000000       -2.88500000000000       -1.11100000000000
 O          -3.80300000000000       -1.30600000000000        3.10200000000000
 O          -4.31900000000000       -1.66300000000000       -3.06600000000000
 C          -5.50000000000000        0.62900000000000        1.83400000000000
 C          -5.67700000000000        0.46600000000000       -1.72600000000000
 H           6.65200000000000       -1.85800000000000       -0.09200000000000
 H           6.86800000000000        0.54400000000000        0.27400000000000
 H           5.58600000000000        4.01100000000000        0.33100000000000
 H           3.86200000000000        5.71600000000000        0.10100000000000
 H          -1.00500000000000       -6.82400000000000       -0.17100000000000
 H          -3.28900000000000       -6.05900000000000        0.22100000000000
 H          -6.43700000000000        2.50100000000000        0.03200000000000
 H          -5.16200000000000        4.55300000000000       -0.29700000000000
 H           0.33700000000000        6.89300000000000       -0.05000000000000
 H          -2.06100000000000        6.56100000000000       -0.32300000000000
 H          -4.83300000000000       -4.91600000000000       -1.40800000000000
 H          -4.01100000000000       -4.01600000000000       -2.72500000000000
 H           4.68700000000000        1.66700000000000        2.93900000000000
 H           6.07600000000000        2.19900000000000        1.93300000000000
 H          -3.43000000000000       -3.65500000000000        2.93100000000000
 H          -4.48300000000000       -4.68900000000000        1.90600000000000
 H           5.34200000000000        2.00600000000000       -2.71100000000000
 H           6.48100000000000        2.40300000000000       -1.38100000000000
 H           4.71200000000000       -5.02500000000000       -0.23000000000000
 H           2.66600000000000       -6.34000000000000       -0.29600000000000
 H           4.48400000000000       -2.56400000000000       -2.90200000000000
 H           5.67300000000000       -3.34600000000000       -1.80700000000000
 H           4.67700000000000       -2.99400000000000        2.77400000000000
 H           5.78800000000000       -3.61200000000000        1.50600000000000
 H           0.81600000000000       -5.57100000000000        2.74300000000000
 H           0.92900000000000       -6.80400000000000        1.44400000000000
 H           0.53300000000000       -5.03300000000000       -2.92100000000000
 H           0.76200000000000       -6.47300000000000       -1.87300000000000
 H           1.84900000000000        5.06500000000000       -2.83200000000000
 H           2.21900000000000        6.34900000000000       -1.63300000000000
 H           1.54000000000000        5.10400000000000        2.85400000000000
 H           2.02100000000000        6.37700000000000        1.68300000000000
 H          -2.72100000000000        4.15200000000000       -2.94300000000000
 H          -3.52400000000000        5.40700000000000       -1.94100000000000
 H          -3.75700000000000        5.80200000000000        1.37400000000000
 H          -3.09500000000000        4.79700000000000        2.70600000000000
 H          -6.79100000000000       -1.19900000000000        0.17600000000000
 H          -5.93700000000000       -3.47300000000000        0.32400000000000
 H          -5.19900000000000        0.65500000000000        2.88400000000000
 H          -6.59300000000000        0.73900000000000        1.75500000000000
 H          -6.76000000000000        0.56700000000000       -1.55700000000000
 H          -5.47400000000000        0.39000000000000       -2.79800000000000
126
 energy: -251.162067728453 gnorm: 0.058253142935 xtb: 6.6.0 (8843059)
 N           4.91427647722442       -1.50209204732886       -1.20627433374537
 C           5.68926176108286       -1.33386117686030        0.00189430082251
 C           5.83280812608715        0.20973264762322        0.11549343010083
 N           5.34174547604759        0.68327018494601       -1.14675421185000
 C           4.80749987823489       -0.32480929444654       -1.92029204880873
 N           5.03895743923892       -1.69772743092863        1.22735819696330
 C           4.64562650132990       -0.60240367376752        1.96546997268292
 N           5.02727023229508        0.52881842309855        1.27171968388481
 O           4.40175941407930       -0.21195670650438       -3.05305687725755
 O           4.13929215676341       -0.62931941901279        3.06279763129574
 N           4.49695098346292        2.96147698672539       -1.11028014480845
 C           4.57821626871397        3.60086809739499        0.17291292817021
 C           3.46890911802833        4.68943390601140        0.10521076536654
 N           2.80705048902983        4.41036610836743       -1.14586041725593
 C           3.47653324762150        3.46059137319663       -1.89071778165577
 N           4.18696471134520        2.79888410961266        1.30616023335497
 C           3.12996019159675        3.35257968072563        1.99964143753368
 N           2.69930127935576        4.45501486114769        1.29426459440885
 O           3.26346596291185        3.18136361568541       -3.04705513897774
 O           2.71484852974429        2.98908127345212        3.07525452963949
 N          -0.62475570715017       -5.05847529645278       -1.23337895098483
 C          -1.09479910483331       -5.73445403477581       -0.04596624922389
 C          -2.56450216891500       -5.24370930192123        0.07809753891411
 N          -2.79897568299972       -4.57911583757578       -1.17155446237757
 C          -1.65783064469495       -4.46908777132629       -1.93584089031414
 N          -0.50183265858601       -5.32252298720872        1.19355543106738
 C          -1.34368474361595       -4.53462284462813        1.94796339048395
 N          -2.52850974453241       -4.40075974875412        1.25078970810664
 O          -1.59225413078409       -4.01895952043831       -3.05563329534540
 O          -1.11807399553525       -4.11283183292475        3.05805159793800
 N          -5.02069783470835        1.65432297226309       -1.25021277744228
 C          -5.35080062357944        2.34286794460015       -0.03515569862948
 C          -4.53659464605578        3.66335352872914       -0.13748334463290
 N          -3.69064499801225        3.43981528520333       -1.28554847109991
 C          -4.04416524819693        2.29862651751491       -1.97795426053265
 N          -4.86121846317638        1.74874477724118        1.18717261187595
 C          -4.07471577125318        2.62417686894799        1.90969022702870
 N          -3.87076094469323        3.74269211947894        1.13179905300931
 O          -3.63639506805735        1.97121773949572       -3.06774532954791
 O          -3.70588284470520        2.47493060281759        3.05107262377818
 N           0.52124904097642        5.21189916249526       -1.27797157418460
 C           0.03735888247460        5.83492766502624       -0.07890296620110
 C          -1.50194434205119        5.62819035505480       -0.16117383531398
 N          -1.65734469428250        4.75383957468672       -1.29844692013876
 C          -0.47566434609593        4.58296304360829       -1.99085719933803
 N           0.39129760443482        5.18742947712026        1.16191569276983
 C          -0.72080472899455        4.82919020028197        1.89766508321226
 N          -1.83139954682702        5.06493174963185        1.11760182717345
 O          -0.35268918545880        4.05516860405022       -3.07172940215735
 O          -0.72514084174565        4.46086707799235        3.04882969409326
 C          -4.08719570456876       -4.14058507108509       -1.63865659175794
 C           5.04761593848742        1.81802062630291        1.91354726892199
 C          -3.71470183075903       -3.90475181472755        1.90030503567316
 C           5.47160715241705        2.03488362874910       -1.62198078844629
 N           3.66893541550653       -3.57787363478509       -1.31858355277214
 C           3.79771309796272       -4.41811849849657       -0.15954973960957
 C           2.49002692395683       -5.26198020997946       -0.17672041782726
 N           1.77570471972928       -4.74775481504844       -1.31629601729948
 C           2.49840744747074       -3.80113560203365       -2.01135480769203
 N           3.74700457293992       -3.74993741040183        1.11541065342526
 C           2.67389387687292       -4.15374109318305        1.88186245296272
 N           1.90321193121108       -4.99528701581021        1.10883423778596
 O           2.20043680328291       -3.31991634858280       -3.07958354694388
 O           2.49061134716464       -3.88954693974364        3.04671871196722
 C           4.73507745913549       -2.77634860431814       -1.85543215882109
 C           4.86327761982733       -3.04639866813274        1.69382662813318
 C           0.79571803541645       -5.73291206703936        1.65881302267293
 C           0.61814621835667       -5.38496201224891       -1.88502580630301
 C           1.86996216178427        5.31477805402391       -1.76405109146986
 C           1.67966236622642        5.33712407634492        1.79129990009754
 C          -2.92885729039447        4.48540177320357       -1.91832012997104
 C          -3.17139105999746        4.90269870437589        1.61698582618501
 N          -5.12370231032186       -0.65805285868999        1.31333504278523
 C          -5.69389036713872       -1.25931315177270        0.14004939082265
 C          -5.15157582522594       -2.71729572075937        0.18105960845123
 N          -4.26015872539650       -2.70961091672872        1.31286144336292
 C          -4.30184506148409       -1.51869613875651        2.00772151683864
 N          -5.21413708741284       -0.76110475300274       -1.12520323687775
 C          -4.61324920178903       -1.74458976626572       -1.88304920480834
 N          -4.53439101433004       -2.88013251723471       -1.10688738534407
 O          -3.78334616647028       -1.29974567445780        3.07797496097568
 O          -4.29470069591678       -1.65346665683218       -3.04549872103064
 C          -5.50197547622069        0.62868874030503        1.83032589550917
 C          -5.67707960704251        0.46605432508002       -1.72210380266278
 H           6.64730502352888       -1.86852300670448       -0.08912471005763
 H           6.86625489346504        0.55491398834012        0.27092600647606
 H           5.59162262037264        4.00196902878359        0.32918437263698
 H           3.85262514871128        5.72147099830138        0.10403116842629
 H          -0.99351906151401       -6.82398430046078       -0.16789759757769
 H          -3.29822305460943       -6.05232825705933        0.21787190907634
 H          -6.43983128405937        2.49016400410906        0.02900041936427
 H          -5.15430680564174        4.56082283707332       -0.29448575143945
 H           0.34785876758697        6.89092807461161       -0.05267558930607
 H          -2.07144849061743        6.55687764154489       -0.32094352710071
 H          -4.82971105312624       -4.91457982149195       -1.40220967249742
 H          -4.00169346574579       -4.00784447191894       -2.72224580138776
 H           4.68282638730215        1.66603453924941        2.93556799123738
 H           6.07953981716419        2.20117804252184        1.92838451503538
 H          -3.42746543958214       -3.65137976710292        2.92708922022420
 H          -4.48598674062868       -4.69035578805469        1.90125257576886
 H           5.33031674574567        2.00133854720990       -2.70773098466654
 H           6.47743191652848        2.40097191867219       -1.37536576433009
 H           4.71914926395315       -5.01713296434462       -0.23116893829466
 H           2.65594645505306       -6.34375192890703       -0.29577304574411
 H           4.47746768576725       -2.56189643819698       -2.89833171010252
 H           5.67315298613673       -3.34890369948296       -1.80186733870118
 H           4.66858085595211       -2.98702944369148        2.77023935669326
 H           5.78729677943046       -3.60873231659082        1.50018029353194
 H           0.81366309090128       -5.55942726285069        2.74006358396607
 H           0.92726209417153       -6.80084339945992        1.43772410890513
 H           0.53331862770084       -5.02751804036031       -2.91729924241455
 H           0.76391370220336       -6.47571996713999       -1.86805867333708
 H           1.84475950292200        5.05669473450490       -2.82834133723079
 H           2.21642282796984        6.34918894990725       -1.62736040281954
 H           1.53833130671020        5.09535356696826        2.85038620189323
 H           2.02328882012799        6.37571058499522        1.67725964327107
 H          -2.71821307499971        4.14812004178907       -2.93923140439876
 H          -3.52596485086190        5.41036775197384       -1.93636793776794
 H          -3.75506085668696        5.79884086693851        1.36816196241449
 H          -3.08795868452083        4.78690708445381        2.70301094386243
 H          -6.79203070397191       -1.18806897764106        0.17798138260011
 H          -5.93097622833421       -3.48187020654130        0.32252628214029
 H          -5.19154449422786        0.65304679651824        2.88050172383994
 H          -6.59366068801776        0.73664266693389        1.74962580666498
 H          -6.75821172695296        0.56904392860486       -1.55153807890085
 H          -5.46386534112495        0.38998388635450       -2.79412215873720
126
 energy: -251.167498008180 gnorm: 0.011106938715 xtb: 6.6.0 (8843059)
 N           4.91552652877389       -1.50131603445139       -1.20512831660908
 C           5.69320380993629       -1.33176758647046        0.00369249428493
 C           5.83642564153835        0.20707540942519        0.11393879998195
 N           5.32662400258310        0.68053883087133       -1.14327561597960
 C           4.78692785654565       -0.32473616261658       -1.90066362841887
 N           5.02342649315617       -1.69260738817964        1.22274887366222
 C           4.62693976034091       -0.59824498932204        1.94462372828372
 N           5.02806199795169        0.52837428522531        1.27062842782754
 O           4.35745934840953       -0.21072480679791       -3.02876062520273
 O           4.09852050024127       -0.62167179349706        3.03563881578392
 N           4.48687708455573        2.95671845516738       -1.10755001892579
 C           4.57999832354199        3.60659446289307        0.17226365929820
 C           3.47444547783446        4.69104863602266        0.10717351451786
 N           2.80846709991545        4.40937610903428       -1.14406405284496
 C           3.46104620850094        3.44620197630125       -1.87130603956326
 N           4.18602788834858        2.79921018087988        1.30429941482918
 C           3.11896980385160        3.33865780402841        1.97754058280777
 N           2.69309113423477        4.44362124675451        1.28927721461672
 O           3.23022997614052        3.14913581473196       -3.02373051432146
 O           2.68843596586614        2.95857001852988        3.04584583060017
 N          -0.62536748951376       -5.05962739968179       -1.23219806266477
 C          -1.09829436838688       -5.73751636616352       -0.04385761827207
 C          -2.56343158173193       -5.24827188750015        0.07606180922975
 N          -2.79019173640626       -4.56581689425098       -1.16770533633411
 C          -1.64878294538641       -4.45046077903386       -1.91559356089388
 N          -0.50069110654348       -5.30650351662280        1.18958018815541
 C          -1.34031962412408       -4.51540089441256        1.92780996778006
 N          -2.52885967637255       -4.40216857346314        1.24994292582910
 O          -1.57523799236652       -3.97863785406757       -3.03006381553202
 O          -1.10882934478137       -4.07145949762803        3.03204881317233
 N          -5.00614312070241        1.64970675515511       -1.24533433863382
 C          -5.35312058348333        2.34691860911165       -0.03719096390511
 C          -4.54206454428238        3.66366003362270       -0.13602660093127
 N          -3.69137112102375        3.43975496425691       -1.28430980136074
 C          -4.02703009694711        2.29103134582029       -1.95665522915079
 N          -4.86190084431876        1.75044169005238        1.18589292723596
 C          -4.05825962259882        2.61203575959781        1.89048716665983
 N          -3.86186369061064        3.73281093209721        1.12848972946436
 O          -3.59964710813969        1.95280533230363       -3.03992499791254
 O          -3.66978347573650        2.45001398526480        3.02735410132323
 N           0.51970140697494        5.19781041064251       -1.27277264290976
 C           0.03419794632958        5.83871606146851       -0.08066185492951
 C          -1.49991309048746        5.63346246515073       -0.16052554843063
 N          -1.65657970545178        4.75352329448461       -1.29689082168775
 C          -0.47520243058553        4.56453346476046       -1.96930735458286
 N           0.38957590406633        5.18744417279368        1.16015460843083
 C          -0.71672530706705        4.80811347703608        1.87817060112221
 N          -1.82635714235103        5.05367124570039        1.11419906664435
 O          -0.35038356561141        4.01427208728000       -3.04267460201264
 O          -0.71744790014914        4.41466821521614        3.02490654890226
 C          -4.08136549766898       -4.13538329412937       -1.63476030760535
 C           5.05069702525827        1.81956837840903        1.91029149056603
 C          -3.71741256459673       -3.90605838829989        1.89683082992394
 C           5.46417929077299        2.03182721484007       -1.61853067248235
 N           3.66221370922598       -3.57283776884060       -1.31421275396555
 C           3.79817556677988       -4.42421741868077       -0.16034241222928
 C           2.49544265216462       -5.26476339091886       -0.17712970337938
 N           1.77504926196640       -4.74315972881267       -1.31293335705126
 C           2.48888297906003       -3.78724824754038       -1.98847668534954
 N           3.74294134266990       -3.74857981926542        1.11304537320079
 C           2.66226115537738       -4.13544836462817        1.86235642246337
 N           1.90222182314476       -4.98808493886940        1.10592723889301
 O           2.17805821552855       -3.28632798914992       -3.04873195118614
 O           2.46484750747739       -3.84950136445317        3.02400858737363
 C           4.73439110302638       -2.77765215405458       -1.85137539586226
 C           4.85872325320569       -3.04306712748493        1.68980115527626
 C           0.79444768551804       -5.72596424517062        1.65504324414978
 C           0.61950760013639       -5.38661408625640       -1.88133400258766
 C           1.86817146228707        5.31199462301439       -1.75983453694741
 C           1.67952819598860        5.33445136816230        1.78715323956446
 C          -2.93063023213063        4.48834883517608       -1.91484344653694
 C          -3.16700959275845        4.89597674992084        1.61350273737250
 N          -5.11230106416534       -0.65725378820311        1.30833092237628
 C          -5.69746041021393       -1.26370277187736        0.14150352438346
 C          -5.15738820572142       -2.71625122477538        0.18063432876970
 N          -4.25825429161190       -2.70720626170635        1.31031751783812
 C          -4.28487332149518       -1.51355276363493        1.98544450026877
 N          -5.21212756725889       -0.76268331300601       -1.12276487798764
 C          -4.59273199980014       -1.73638086148694       -1.86397548898467
 N          -4.52739451860950       -2.87384638567220       -1.10387767535100
 O          -3.74435212202664       -1.28691896900006        3.04722040294488
 O          -4.25037765416289       -1.63639199696209       -3.02266857080760
 C          -5.50068459465250        0.62741598785463        1.82608489015270
 C          -5.67279735255266        0.46618519273043       -1.71820774363678
 H           6.64171391691397       -1.88260052676186       -0.08212802613579
 H           6.86446406492500        0.56938991310119        0.26408692037422
 H           5.59981372696230        3.99062882175015        0.32498626121844
 H           3.84026999418748        5.72888748094044        0.11008134412348
 H          -0.97854703932848       -6.82476621074940       -0.16080755797377
 H          -3.31079128212339       -6.04431792702430        0.21069368420057
 H          -6.44417522772160        2.47589371306544        0.02221993832259
 H          -5.14475433906442        4.57143004104822       -0.28885999021094
 H           0.36231099993344        6.88877583366820       -0.05878322285163
 H          -2.08496914206935        6.55228781165595       -0.31617289686253
 H          -4.81977827486193       -4.90835900028294       -1.39308940799548
 H          -3.99130266949084       -3.99816265541623       -2.71954253556020
 H           4.68121196723842        1.66595396711301        2.93225332424607
 H           6.07977707771761        2.20256066380388        1.91809064187169
 H          -3.42656998581105       -3.64940394928252        2.92333076617090
 H          -4.48765949521887       -4.68825509942869        1.89081051101048
 H           5.31686912771745        1.99619559529298       -2.70485768786942
 H           6.46669892110777        2.39536118878908       -1.36625805427933
 H           4.72865509065612       -5.00715146078843       -0.23351855536126
 H           2.64310206525320       -6.34907709959542       -0.29486682114173
 H           4.47196300306920       -2.56022751962365       -2.89458554022935
 H           5.66778492232115       -3.35149695894746       -1.79160995870861
 H           4.65907952749316       -2.97994646704129        2.76663159078562
 H           5.78202342371970       -3.59951869773939        1.49058754441821
 H           0.81146812773077       -5.54636931739298        2.73720218071671
 H           0.92249533283445       -6.79066037963024        1.42818517217274
 H           0.53394923399637       -5.02391337760847       -2.91358507142773
 H           0.76719192699076       -6.47412239048333       -1.85771770471891
 H           1.84076552699053        5.04821629840617       -2.82452141067512
 H           2.20857933908073        6.34472828893111       -1.61747747171601
 H           1.53648959860453        5.08676740562534        2.84650947557429
 H           2.02680907895222        6.36779990245401        1.66690812354607
 H          -2.71695971891557        4.14653678847468       -2.93568871253207
 H          -3.52570849485210        5.41098836141820       -1.92596918272296
 H          -3.74915444558058        5.78902735244712        1.35914608385539
 H          -3.08001244605254        4.77530967654561        2.70025817873945
 H          -6.79352759285399       -1.17384258233860        0.18234579066154
 H          -5.92372266789704       -3.49381369614520        0.31970339964530
 H          -5.18464608337094        0.65119848455936        2.87672382270460
 H          -6.58942021466003        0.73033719249537        1.73950158086810
 H          -6.74956061350876        0.57376607115896       -1.54197702374791
 H          -5.45318604565525        0.38970766878650       -2.79033417450638
126
 energy: -251.169683641121 gnorm: 0.023641382694 xtb: 6.6.0 (8843059)
 N           4.91788836689293       -1.50296843253678       -1.20548527455055
 C           5.69421854922824       -1.33108872741268        0.00501406921649