 Entering Gaussian System
 *********************************************
 Gaussian 98:
 frequency output generated by the xtb code
 *********************************************
                         Standard orientation:
 --------------------------------------------------------------------
  Center     Atomic     Atomic              Coordinates (Angstroms)
  Number     Number      Type              X           Y           Z
 --------------------------------------------------------------------
    1          7             0        4.957251   -1.599012   -1.216333
    2          6             0        5.675232   -1.334040   -0.001226
    3          6             0        5.827896    0.212437   -0.001042
    4          7             0        5.176049    0.612849   -1.216302
    5          6             0        4.722503   -0.459015   -1.958532
    6          7             0        4.958258   -1.599398    1.214371
    7          6             0        4.723560   -0.459590    1.956853
    8          7             0        5.176387    0.612521    1.214526
    9          8             0        4.289563   -0.416170   -3.072654
   10          8             0        4.291224   -0.417029    3.071222
   11          7             0        4.344454    2.876880   -1.215880
   12          6             0        4.582259    3.603640   -0.000404
   13          6             0        3.464804    4.683555   -0.000098
   14          7             0        2.746005    4.421288   -1.215308
   15          6             0        3.304779    3.400476   -1.957788
   16          7             0        4.344812    2.876556    1.214949
   17          6             0        3.305433    3.400026    1.957363
   18          7             0        2.746528    4.421121    1.215374
   19          8             0        3.002272    3.087789   -3.071915
   20          8             0        3.003270    3.087052    3.071504
   21          7             0       -0.553260   -5.174720   -1.215609
   22          6             0       -1.088074   -5.720993   -0.000018
   23          6             0       -2.561945   -5.228460    0.000250
   24          7             0       -2.661298   -4.470102   -1.215138
   25          6             0       -1.497839   -4.494521   -1.957652
   26          7             0       -0.552675   -5.174304    1.215130
   27          6             0       -1.496979   -4.494050    1.957491
   28          7             0       -2.660763   -4.469741    1.215466
   29          8             0       -1.360219   -4.082035   -3.071873
   30          8             0       -1.358874   -4.081372    3.071576
   31          7             0       -4.932239    1.693199   -1.214712
   32          6             0       -5.344468    2.336811    0.000978
   33          6             0       -4.534133    3.662815    0.000992
   34          7             0       -3.772953    3.589549   -1.214509
   35          6             0       -4.057604    2.461094   -1.956887
   36          7             0       -4.931524    1.692687    1.216178
   37          6             0       -4.056809    2.460537    1.958328
   38          7             0       -3.772505    3.589227    1.216182
   39          8             0       -3.686645    2.234431   -3.071154
   40          8             0       -3.685417    2.233577    3.072367
   41          7             0        0.456894    5.181338   -1.214980
   42          6             0        0.038342    5.821215    0.000534
   43          6             0       -1.503139    5.624515    0.000743
   44          7             0       -1.747918    4.899846   -1.214608
   45          6             0       -0.601871    4.697796   -1.957117
   46          7             0        0.457306    5.180826    1.215653
   47          6             0       -0.601250    4.697205    1.958040
   48          7             0       -1.747547    4.899618    1.216018
   49          8             0       -0.546988    4.266500   -3.071359
   50          8             0       -0.546024    4.265569    3.072139
   51          6             0       -3.896170   -4.011424   -1.783232
   52          6             0        5.259322    1.927612    1.781729
   53          6             0       -3.895500   -4.011518    1.784246
   54          6             0        5.258777    1.928084   -1.783195
   55          7             0        3.703534   -3.659499   -1.216324
   56          6             0        3.798102   -4.418707   -0.001080
   57          6             0        2.494721   -5.264938   -0.000778
   58          7             0        1.839400   -4.869984   -1.215968
   59          6             0        2.582939   -3.974625   -1.958283
   60          7             0        3.704279   -3.659740    1.214367
   61          6             0        2.584040   -3.974880    1.956853
   62          7             0        1.840047   -4.870068    1.214793
   63          8             0        2.345732   -3.609658   -3.072329
   64          8             0        2.347430   -3.610054    3.071069
   65          6             0        4.783211   -2.904782   -1.784424
   66          6             0        4.784384   -2.905343    1.782092
   67          6             0        0.710705   -5.548560    1.782475
   68          6             0        0.710027   -5.548750   -1.783281
   69          6             0        1.768385    5.304332   -1.783231
   70          6             0        1.768895    5.303882    1.783684
   71          6             0       -3.048425    4.689720   -1.782582
   72          6             0       -3.047865    4.689285    1.784330
   73          7             0       -5.165659   -0.707830    1.216482
   74          6             0       -5.694418   -1.259833    0.000851
   75          6             0       -5.155039   -2.717219    0.000748
   76          7             0       -4.393707   -2.792104    1.216058
   77          6             0       -4.455486   -1.630023    1.958563
   78          7             0       -5.165151   -0.707441   -1.214416
   79          6             0       -4.455323   -1.629680   -1.956797
   80          7             0       -4.393741   -2.791960   -1.214578
   81          8             0       -4.047753   -1.479226    3.072826
   82          8             0       -4.047551   -1.478696   -3.071001
   83          6             0       -5.577702    0.544096    1.782995
   84          6             0       -5.577918    0.544172   -1.781158
   85          1             0        6.631962   -1.889046   -0.001708
   86          1             0        6.874679    0.569663   -0.001141
   87          1             0        5.611370    4.008963   -0.000502
   88          1             0        3.834762    5.725902   -0.000103
   89          1             0       -0.972388   -6.820986    0.000138
   90          1             0       -3.315725   -6.037895    0.000539
   91          1             0       -6.442398    2.470621    0.001336
   92          1             0       -5.154093    4.578789    0.001228
   93          1             0        0.365620    6.877748    0.000701
   94          1             0       -2.085252    6.565004    0.000916
   95          1             0       -4.659573   -4.799566   -1.682038
   96          1             0       -3.686921   -3.795073   -2.839217
   97          1             0        4.979443    1.824603    2.838493
   98          1             0        6.288937    2.305827    1.677546
   99          1             0       -3.685839   -3.795241    2.840167
  100          1             0       -4.658705   -4.799889    1.683302
  101          1             0        4.978552    1.825348   -2.839894
  102          1             0        6.288425    2.306264   -1.679245
  103          1             0        4.730690   -5.013385   -0.001423
  104          1             0        2.658458   -6.358808   -0.000860
  105          1             0        4.526543   -2.748608   -2.840565
  106          1             0        5.720494   -3.475097   -1.682623
  107          1             0        4.528370   -2.749504    2.838439
  108          1             0        5.721536   -3.475730    1.679523
  109          1             0        0.673135   -5.251677    2.838951
  110          1             0        0.849050   -6.636821    1.679393
  111          1             0        0.672052   -5.251942   -2.839763
  112          1             0        0.848643   -6.636971   -1.680172
  113          1             0        1.673601    5.019273   -2.839380
  114          1             0        2.114120    6.345610   -1.681405
  115          1             0        1.674362    5.018549    2.839782
  116          1             0        2.114463    6.345233    1.682048
  117          1             0       -2.885350    4.437546   -2.838760
  118          1             0       -3.644440    5.610880   -1.680659
  119          1             0       -3.643956    5.610437    1.682810
  120          1             0       -2.884460    4.436853    2.840396
  121          1             0       -6.797546   -1.179381    0.000629
  122          1             0       -5.940004   -3.496446    0.000713
  123          1             0       -5.281515    0.515297    2.839941
  124          1             0       -6.669309    0.650559    1.678092
  125          1             0       -6.669564    0.650099   -1.676110
  126          1             0       -5.281874    0.515362   -2.838145
 --------------------------------------------------------------------
     1 basis functions        1 primitive gaussians
     1 alpha electrons        1 beta electrons
 
 Harmonic frequencies (cm**-1), IR intensities (km*mol⁻¹),
 Raman scattering activities (A**4/amu), Raman depolarization ratios,
 reduced masses (AMU), force constants (mDyne/A) and normal coordinates:
                      1                      2                      3
                        a                      a                      a 
 Frequencies --    16.1006                16.3266                17.0266
 Red. masses --    13.1668                13.1675                13.5486
 Frc consts  --     0.0000                 0.0000                 0.0000
 IR Inten    --     0.0074                 0.0457                 0.0002
 Raman Activ --     0.0000                 0.0000                 0.0000
 Depolar     --     0.0000                 0.0000                 0.0000
 Atom AN      X      Y      Z        X      Y      Z        X      Y      Z
   1   7    -0.11  -0.01   0.00     0.07  -0.08  -0.00     0.04  -0.05   0.03
   2   6    -0.11   0.00  -0.00     0.05  -0.04   0.00    -0.00   0.00   0.04
   3   6    -0.12   0.00   0.00    -0.01  -0.04   0.00    -0.00   0.00  -0.01
   4   7    -0.13  -0.00   0.00    -0.03  -0.07   0.00    -0.03  -0.05  -0.02
   5   6    -0.11  -0.01   0.00     0.02  -0.08  -0.00     0.01  -0.07   0.00
   6   7    -0.11  -0.01  -0.00     0.07  -0.08   0.00    -0.04   0.05   0.03
   7   6    -0.11  -0.01  -0.00     0.02  -0.08   0.00    -0.01   0.07   0.00
   8   7    -0.14  -0.00  -0.00    -0.03  -0.07  -0.00     0.02   0.05  -0.02
   9   8    -0.14  -0.01   0.00     0.02  -0.12  -0.00     0.02  -0.13  -0.00
  10   8    -0.14  -0.01  -0.00     0.02  -0.12   0.00    -0.02   0.13  -0.00
  11   7    -0.09   0.02   0.00    -0.09  -0.09   0.00    -0.06  -0.06  -0.04
  12   6    -0.05   0.01   0.00    -0.08  -0.08  -0.00    -0.00   0.00  -0.08
  13   6    -0.01   0.05   0.00    -0.08  -0.08  -0.00     0.00   0.00  -0.07
  14   7    -0.02   0.09  -0.00    -0.09  -0.09   0.00    -0.06  -0.05  -0.03
  15   6    -0.06   0.06   0.00    -0.08  -0.08   0.00    -0.09  -0.08  -0.01
  16   7    -0.09   0.01  -0.00    -0.09  -0.09  -0.00     0.06   0.06  -0.04
  17   6    -0.06   0.06   0.00    -0.08  -0.08  -0.00     0.09   0.08  -0.01
  18   7    -0.02   0.09   0.00    -0.09  -0.09  -0.00     0.06   0.06  -0.03
  19   8    -0.08   0.08  -0.00    -0.10  -0.10   0.00    -0.16  -0.15   0.02
  20   8    -0.08   0.08  -0.00    -0.10  -0.10  -0.00     0.16   0.15   0.02
  21   7     0.00  -0.14  -0.00     0.07   0.02   0.00     0.04   0.00   0.00
  22   6    -0.01  -0.11   0.00     0.04   0.03  -0.00    -0.00  -0.00  -0.02
  23   6     0.00  -0.07   0.00     0.06   0.08  -0.00    -0.00  -0.00  -0.07
  24   7     0.02  -0.08  -0.00     0.09   0.09   0.00     0.06   0.06  -0.04
  25   6     0.02  -0.10  -0.00     0.09   0.05   0.00     0.08   0.05  -0.01
  26   7     0.00  -0.14   0.00     0.07   0.02  -0.00    -0.05  -0.01   0.00
  27   6     0.02  -0.10   0.00     0.08   0.05  -0.00    -0.08  -0.05  -0.01
  28   7     0.02  -0.08   0.00     0.09   0.09  -0.00    -0.06  -0.06  -0.04
  29   8     0.03  -0.12  -0.00     0.11   0.05   0.00     0.14   0.09   0.01
  30   8     0.04  -0.12   0.00     0.11   0.05  -0.00    -0.14  -0.09   0.01
  31   7     0.12   0.00   0.00    -0.06   0.07  -0.00    -0.03   0.05   0.02
  32   6     0.09  -0.01  -0.00    -0.07   0.06   0.00     0.00  -0.00   0.05
  33   6     0.04   0.02  -0.00    -0.09   0.08   0.00     0.00  -0.00   0.08
  34   7     0.04   0.05  -0.00    -0.10   0.10  -0.00    -0.06   0.07   0.04
  35   6     0.08   0.04   0.00    -0.07   0.09  -0.00    -0.07   0.08   0.01
  36   7     0.12   0.00  -0.00    -0.06   0.07   0.00     0.03  -0.05   0.02
  37   6     0.08   0.04  -0.00    -0.07   0.09   0.00     0.07  -0.08   0.01
  38   7     0.04   0.05  -0.00    -0.10   0.10   0.00     0.06  -0.07   0.04
  39   8     0.11   0.06   0.00    -0.08   0.11  -0.00    -0.13   0.15  -0.01
  40   8     0.11   0.06  -0.00    -0.08   0.11   0.00     0.13  -0.15  -0.01
  41   7     0.00   0.14  -0.00    -0.07  -0.03   0.00    -0.05  -0.01  -0.01
  42   6    -0.01   0.12   0.00    -0.04  -0.01  -0.00     0.00   0.00  -0.00
  43   6    -0.00   0.10  -0.00    -0.05   0.05   0.00     0.00   0.00   0.05
  44   7     0.00   0.11  -0.00    -0.08   0.07  -0.00    -0.05   0.05   0.04
  45   6     0.01   0.12  -0.00    -0.08   0.02  -0.00    -0.07   0.03   0.00
  46   7    -0.00   0.14   0.00    -0.07  -0.03  -0.00     0.05   0.02  -0.01
  47   6     0.01   0.12   0.00    -0.08   0.02   0.00     0.07  -0.02   0.00
  48   7     0.00   0.11   0.00    -0.08   0.07   0.00     0.05  -0.05   0.04
  49   8     0.01   0.14  -0.00    -0.12   0.02  -0.00    -0.12   0.05  -0.00
  50   8     0.01   0.14   0.00    -0.12   0.02   0.00     0.12  -0.05  -0.00
  51   6     0.03  -0.04   0.00     0.10   0.10  -0.01     0.08   0.08  -0.07
  52   6    -0.11  -0.01   0.01    -0.07  -0.07   0.01     0.06   0.05  -0.05
  53   6     0.03  -0.03   0.00     0.10   0.10   0.01    -0.08  -0.08  -0.07
  54   6    -0.11  -0.01  -0.01    -0.07  -0.07  -0.01    -0.06  -0.05  -0.05
  55   7    -0.05  -0.04  -0.00     0.10  -0.10  -0.00     0.06  -0.07   0.04
  56   6    -0.02  -0.04  -0.00     0.08  -0.09   0.00    -0.00  -0.00   0.08
  57   6     0.01  -0.09  -0.00     0.06  -0.07   0.00    -0.00  -0.00   0.06
  58   7    -0.00  -0.12  -0.00     0.08  -0.06  -0.00     0.05  -0.05   0.02
  59   6    -0.04  -0.08  -0.00     0.09  -0.07  -0.00     0.08  -0.08   0.01
  60   7    -0.05  -0.04  -0.00     0.10  -0.10   0.00    -0.06   0.07   0.04
  61   6    -0.04  -0.08   0.00     0.09  -0.07   0.00    -0.08   0.08   0.01
  62   7    -0.00  -0.12   0.00     0.08  -0.06   0.00    -0.05   0.04   0.02
  63   8    -0.06  -0.11  -0.00     0.11  -0.08  -0.00     0.15  -0.15  -0.02
  64   8    -0.06  -0.11   0.00     0.11  -0.08   0.00    -0.15   0.15  -0.02
  65   6    -0.07  -0.01  -0.00     0.09  -0.08   0.01     0.07  -0.07   0.06
  66   6    -0.07  -0.01   0.00     0.09  -0.08  -0.01    -0.08   0.07   0.06
  67   6     0.01  -0.13  -0.01     0.05  -0.03  -0.00    -0.04   0.03   0.02
  68   6     0.01  -0.13   0.01     0.05  -0.03   0.00     0.04  -0.03   0.02
  69   6     0.01   0.11   0.01    -0.06  -0.07  -0.01    -0.05  -0.05  -0.04
  70   6     0.01   0.11  -0.01    -0.06  -0.07   0.01     0.05   0.05  -0.04
  71   6     0.01   0.07   0.00    -0.08   0.09   0.01    -0.07   0.08   0.07
  72   6     0.01   0.07  -0.00    -0.08   0.09  -0.01     0.07  -0.08   0.07
  73   7     0.14   0.00  -0.00     0.02   0.07  -0.00    -0.01  -0.04  -0.01
  74   6     0.11   0.01   0.00     0.03   0.05   0.00     0.00  -0.00  -0.03
  75   6     0.07  -0.00   0.00     0.08   0.06  -0.00     0.00  -0.00  -0.07
  76   7     0.08  -0.02  -0.00     0.09   0.09  -0.00    -0.06  -0.06  -0.04
  77   6     0.10  -0.02  -0.00     0.05   0.09  -0.00    -0.06  -0.08  -0.01
  78   7     0.14   0.00   0.00     0.02   0.07   0.00     0.01   0.04  -0.01
  79   6     0.10  -0.02   0.00     0.05   0.09   0.00     0.06   0.08  -0.01
  80   7     0.08  -0.02   0.00     0.09   0.09   0.00     0.06   0.06  -0.04
  81   8     0.12  -0.03  -0.00     0.05   0.11  -0.00    -0.11  -0.14   0.01
  82   8     0.12  -0.03   0.00     0.05   0.12   0.00     0.11   0.14   0.01
  83   6     0.13  -0.00   0.01    -0.02   0.05  -0.00     0.01  -0.04   0.01
  84   6     0.13  -0.00  -0.01    -0.02   0.05   0.00    -0.01   0.04   0.01
  85   1    -0.03   0.00  -0.00     0.02  -0.00   0.00    -0.00   0.00   0.03
  86   1    -0.04   0.00   0.00    -0.01   0.00   0.00    -0.00   0.00  -0.01
  87   1    -0.01  -0.01   0.00    -0.02  -0.02  -0.00    -0.00  -0.00  -0.04
  88   1     0.01   0.01   0.00    -0.02  -0.02  -0.00     0.00   0.00  -0.04
  89   1    -0.01  -0.03   0.00     0.00   0.01  -0.00    -0.00  -0.00  -0.01
  90   1    -0.01  -0.02   0.00     0.01   0.03  -0.00    -0.00  -0.00  -0.04
  91   1     0.02  -0.01  -0.00    -0.02   0.01   0.00     0.00  -0.00   0.02
  92   1     0.00  -0.00  -0.00    -0.03   0.02   0.00     0.00  -0.00   0.05
  93   1    -0.00   0.04   0.00     0.00  -0.01  -0.00    -0.00   0.00  -0.01
  94   1    -0.00   0.03  -0.00    -0.00   0.02   0.00    -0.00   0.00   0.03
  95   1     0.00  -0.00   0.00     0.03   0.03  -0.01     0.02   0.02  -0.04
  96   1     0.01  -0.01   0.00     0.03   0.03  -0.00     0.04   0.04  -0.02
  97   1    -0.04  -0.00   0.00    -0.02  -0.02   0.00     0.03   0.02  -0.01
  98   1    -0.03  -0.01   0.01    -0.02  -0.01   0.01     0.02   0.01  -0.03
  99   1     0.01  -0.01   0.00     0.03   0.03   0.00    -0.04  -0.04  -0.02
 100   1     0.00  -0.00   0.00     0.03   0.03   0.01    -0.02  -0.02  -0.04
 101   1    -0.04  -0.00  -0.00    -0.02  -0.02  -0.00    -0.03  -0.02  -0.01
 102   1    -0.03  -0.01  -0.01    -0.02  -0.01  -0.01    -0.02  -0.01  -0.03
 103   1     0.00  -0.00  -0.00     0.02  -0.03   0.00    -0.00   0.00   0.05
 104   1     0.02  -0.02  -0.00     0.01  -0.02   0.00     0.00  -0.00   0.03
 105   1    -0.03  -0.00  -0.00     0.03  -0.03   0.00     0.03  -0.03   0.01
 106   1    -0.02   0.01  -0.00     0.03  -0.02   0.01     0.02  -0.02   0.03
 107   1    -0.02  -0.00   0.00     0.03  -0.03  -0.00    -0.03   0.03   0.01
 108   1    -0.02   0.01   0.00     0.03  -0.02  -0.01    -0.02   0.02   0.03
 109   1     0.00  -0.04  -0.00     0.02  -0.01  -0.00    -0.02   0.01   0.00
 110   1     0.00  -0.04  -0.01     0.01  -0.01  -0.00    -0.00   0.01   0.01
 111   1     0.00  -0.04   0.00     0.02  -0.01   0.00     0.02  -0.01   0.00
 112   1     0.00  -0.04   0.01     0.01  -0.01   0.00     0.00  -0.01   0.01
 113   1     0.00   0.04   0.00    -0.02  -0.02  -0.00    -0.02  -0.02  -0.01
 114   1     0.01   0.03   0.01    -0.01  -0.02  -0.01    -0.01  -0.02  -0.02
 115   1     0.00   0.04  -0.00    -0.02  -0.02   0.00     0.02   0.02  -0.01
 116   1     0.01   0.03  -0.01    -0.01  -0.02   0.01     0.01   0.02  -0.02
 117   1     0.00   0.02   0.00    -0.03   0.03   0.00    -0.03   0.04   0.01
 118   1    -0.01   0.02   0.00    -0.02   0.03   0.01    -0.02   0.02   0.04
 119   1    -0.01   0.02  -0.00    -0.02   0.03  -0.01     0.02  -0.02   0.04
 120   1     0.00   0.02  -0.00    -0.03   0.03  -0.00     0.03  -0.04   0.01
 121   1     0.03   0.01   0.00     0.01   0.00   0.00     0.00   0.00  -0.01
 122   1     0.02   0.01   0.00     0.03   0.01  -0.00     0.00   0.00  -0.04
 123   1     0.05  -0.00   0.00    -0.01   0.02  -0.00     0.01  -0.02   0.00
 124   1     0.04  -0.00   0.01    -0.01   0.01  -0.00     0.00  -0.00   0.01
 125   1     0.04  -0.00  -0.01    -0.01   0.01   0.00    -0.00   0.00   0.01
 126   1     0.05  -0.00  -0.00    -0.01   0.02   0.00    -0.01   0.02   0.00
                      4                      5                      6
                        a                      a                      a 
 Frequencies --    19.2282                40.9094                40.9130
 Red. masses --    13.5186                12.8584                14.1627
 Frc consts  --     0.0000                 0.0000                 0.0000
 IR Inten    --     0.0001                 0.0171                 0.0123
 Raman Activ --     0.0000                 0.0000                 0.0000
 Depolar     --     0.0000                 0.0000                 0.0000
 Atom AN      X      Y      Z        X      Y      Z        X      Y      Z
   1   7    -0.07  -0.00  -0.03    -0.08   0.07   0.01     0.08  -0.00  -0.03
   2   6    -0.00  -0.00  -0.07    -0.04   0.00  -0.00    -0.01   0.00   0.02
   3   6    -0.00  -0.00  -0.08     0.09  -0.01  -0.00     0.01  -0.00   0.01
   4   7    -0.09   0.00  -0.04     0.13   0.05   0.00     0.09  -0.01  -0.04
   5   6    -0.12   0.00  -0.02     0.02   0.08   0.01     0.12  -0.01  -0.05
   6   7     0.07   0.00  -0.04    -0.05   0.06   0.00    -0.10   0.02  -0.03
   7   6     0.12  -0.00  -0.02     0.05   0.08   0.01    -0.12   0.03  -0.05
   8   7     0.09  -0.00  -0.04     0.15   0.04   0.01    -0.05   0.02  -0.03
   9   8    -0.22   0.00   0.01     0.02   0.14   0.01     0.23  -0.02  -0.10
  10   8     0.22  -0.00   0.01     0.08   0.13   0.02    -0.22   0.06  -0.10
  11   7    -0.06   0.01  -0.02     0.13   0.05  -0.01    -0.02  -0.05   0.03
  12   6    -0.00  -0.00  -0.02     0.05   0.05   0.00     0.01   0.01  -0.01
  13   6    -0.00  -0.00   0.03    -0.04  -0.05   0.00    -0.00  -0.01  -0.02
  14   7    -0.00   0.07   0.03    -0.02  -0.11  -0.00    -0.07  -0.09   0.04
  15   6    -0.05   0.06   0.00     0.08  -0.05  -0.01    -0.07  -0.11   0.05
  16   7     0.06  -0.01  -0.02     0.12   0.03  -0.00     0.06   0.06   0.04
  17   6     0.04  -0.06   0.00     0.06  -0.07  -0.01     0.09   0.09   0.06
  18   7     0.00  -0.07   0.03    -0.04  -0.13  -0.01     0.06   0.06   0.03
  19   8    -0.08   0.10  -0.00     0.13  -0.08  -0.01    -0.13  -0.20   0.10
  20   8     0.08  -0.10  -0.00     0.09  -0.12  -0.01     0.16   0.17   0.10
  21   7    -0.00  -0.09   0.05    -0.01  -0.11   0.00    -0.03  -0.00  -0.02
  22   6     0.00   0.00   0.08    -0.03  -0.08   0.00    -0.00  -0.01  -0.01
  23   6     0.00   0.00   0.05    -0.02  -0.05  -0.00    -0.00  -0.00   0.02
  24   7     0.01  -0.05   0.02     0.01  -0.04   0.00    -0.06  -0.08  -0.01
  25   6     0.01  -0.10   0.01     0.01  -0.07   0.00    -0.06  -0.06  -0.03
  26   7     0.00   0.09   0.05    -0.02  -0.10   0.00     0.03  -0.03  -0.02
  27   6    -0.01   0.10   0.01    -0.01  -0.09   0.01     0.07   0.04  -0.03
  28   7    -0.01   0.05   0.02    -0.00  -0.06   0.00     0.06   0.07  -0.01
  29   8     0.01  -0.19  -0.01     0.02  -0.09  -0.00    -0.11  -0.10  -0.05
  30   8    -0.01   0.19  -0.01    -0.01  -0.12   0.01     0.12   0.08  -0.05
  31   7     0.08  -0.00  -0.04     0.01   0.03  -0.00     0.09  -0.01   0.01
  32   6    -0.00   0.00  -0.06    -0.01   0.01   0.00    -0.00   0.00  -0.02
  33   6    -0.00   0.00  -0.02    -0.08   0.05  -0.00    -0.01   0.01   0.01
  34   7     0.03   0.03   0.00    -0.09   0.09  -0.00    -0.01   0.05   0.01
  35   6     0.08   0.02  -0.01    -0.03   0.08  -0.01     0.06   0.03   0.02
  36   7    -0.08   0.00  -0.04     0.03   0.03  -0.00    -0.09   0.02   0.01
  37   6    -0.08  -0.02  -0.01    -0.02   0.08   0.00    -0.07  -0.01   0.02
  38   7    -0.03  -0.03   0.00    -0.09   0.10   0.00    -0.01  -0.03   0.01
  39   8     0.15   0.03   0.01    -0.04   0.11  -0.01     0.11   0.04   0.04
  40   8    -0.15  -0.03   0.01    -0.01   0.12   0.00    -0.12  -0.01   0.04
  41   7     0.00   0.09   0.05    -0.03  -0.14   0.01    -0.03   0.01  -0.03
  42   6    -0.00   0.00   0.08     0.01  -0.09   0.00     0.00  -0.01  -0.00
  43   6    -0.00   0.00   0.07    -0.00   0.03  -0.00    -0.00   0.00   0.02
  44   7     0.01   0.07   0.03    -0.06   0.04   0.00    -0.04   0.10  -0.02
  45   6     0.01   0.11   0.02    -0.07  -0.06   0.01    -0.06   0.08  -0.04
  46   7    -0.00  -0.09   0.05    -0.04  -0.14   0.00     0.03  -0.04  -0.03
  47   6    -0.01  -0.11   0.02    -0.08  -0.03   0.00     0.04  -0.10  -0.04
  48   7    -0.01  -0.07   0.03    -0.07   0.07   0.00     0.03  -0.09  -0.02
  49   8     0.01   0.21  -0.01    -0.11  -0.09   0.01    -0.10   0.16  -0.07
  50   8    -0.01  -0.21  -0.01    -0.13  -0.04   0.01     0.07  -0.18  -0.07
  51   6     0.02  -0.03   0.00     0.03   0.00  -0.00    -0.06  -0.07   0.02
  52   6     0.09   0.00  -0.05     0.15   0.05  -0.03     0.02   0.01  -0.00
  53   6    -0.02   0.03   0.00     0.01  -0.02  -0.00     0.07   0.07   0.02
  54   6    -0.09  -0.00  -0.05     0.15   0.05   0.03     0.02   0.01   0.00
  55   7    -0.04  -0.02  -0.01    -0.11   0.08  -0.00    -0.02   0.05   0.03
  56   6     0.00  -0.00   0.00    -0.06   0.08  -0.00    -0.01   0.01   0.00
  57   6     0.00  -0.00   0.06    -0.00   0.01   0.00     0.00  -0.00  -0.02
  58   7    -0.00  -0.08   0.04    -0.02  -0.05  -0.00    -0.05   0.09   0.03
  59   6    -0.03  -0.08   0.00    -0.08   0.00  -0.00    -0.04   0.10   0.05
  60   7     0.04   0.02  -0.01    -0.11   0.09  -0.01    -0.01  -0.03   0.03
  61   6     0.03   0.08   0.00    -0.09   0.03  -0.01     0.02  -0.10   0.05
  62   7     0.00   0.08   0.04    -0.03  -0.02  -0.00     0.04  -0.11   0.03
  63   8    -0.05  -0.14  -0.01    -0.12  -0.02  -0.00    -0.08   0.19   0.09
  64   8     0.05   0.14  -0.01    -0.13   0.03  -0.02     0.05  -0.19   0.08
  65   6    -0.07  -0.00  -0.04    -0.12   0.08  -0.03     0.02  -0.01   0.00
  66   6     0.07   0.00  -0.04    -0.11   0.08   0.02    -0.05   0.03   0.01
  67   6    -0.00   0.11   0.07    -0.01  -0.07  -0.01     0.01  -0.09  -0.02
  68   6     0.00  -0.11   0.07    -0.00  -0.09   0.02    -0.01   0.06  -0.01
  69   6     0.01   0.10   0.06    -0.04  -0.15  -0.03    -0.02  -0.07  -0.01
  70   6    -0.01  -0.10   0.06    -0.05  -0.16   0.03     0.01   0.03  -0.01
  71   6     0.01   0.05   0.03    -0.07   0.09   0.02    -0.05   0.08   0.02
  72   6    -0.01  -0.05   0.03    -0.08   0.11  -0.02     0.04  -0.06   0.02
  73   7    -0.09   0.00  -0.05     0.10   0.02  -0.00    -0.06   0.02  -0.00
  74   6     0.00   0.00  -0.08     0.08   0.03   0.00     0.01   0.00  -0.02
  75   6     0.00   0.00  -0.04     0.05   0.02  -0.00     0.01   0.00   0.02
  76   7    -0.04   0.02  -0.01     0.05   0.00  -0.00     0.05   0.06   0.00
  77   6    -0.10   0.01  -0.01     0.08   0.01  -0.00    -0.01   0.05   0.00
  78   7     0.09  -0.00  -0.05     0.09   0.03   0.00     0.08  -0.01  -0.00
  79   6     0.10  -0.01  -0.01     0.08   0.02   0.00     0.03  -0.04   0.00
  80   7     0.04  -0.02  -0.01     0.06   0.02   0.00    -0.03  -0.05   0.00
  81   8    -0.18   0.02   0.01     0.11  -0.00  -0.01    -0.03   0.08   0.00
  82   8     0.18  -0.02   0.01     0.10   0.02   0.01     0.05  -0.07   0.00
  83   6    -0.11   0.00  -0.07     0.08   0.01   0.01    -0.10   0.01  -0.02
  84   6     0.11  -0.00  -0.07     0.05   0.01  -0.01     0.11  -0.01  -0.02
  85   1    -0.00   0.00  -0.04    -0.02  -0.02  -0.00    -0.00  -0.00   0.02
  86   1    -0.00   0.00  -0.04     0.03  -0.03  -0.00     0.00  -0.00   0.02
  87   1    -0.00  -0.00  -0.02     0.00   0.04   0.00     0.00   0.01  -0.02
  88   1    -0.00  -0.00   0.02    -0.04  -0.00   0.00    -0.00  -0.00  -0.03
  89   1     0.00   0.00   0.04    -0.02  -0.03   0.00    -0.00  -0.00  -0.01
  90   1     0.00   0.00   0.02    -0.01  -0.01  -0.00    -0.00  -0.00   0.03
  91   1    -0.00   0.00  -0.04    -0.01  -0.01   0.00    -0.00  -0.00  -0.03
  92   1    -0.00   0.00  -0.00    -0.04   0.01  -0.00    -0.00   0.00   0.01
  93   1     0.00   0.00   0.04     0.03  -0.03  -0.00     0.00  -0.00   0.00
  94   1     0.00   0.00   0.03     0.02   0.02  -0.00     0.00   0.00   0.03
  95   1     0.00  -0.00   0.00     0.00   0.01  -0.00    -0.02  -0.02   0.02
  96   1     0.01  -0.01   0.00     0.01   0.00  -0.00    -0.03  -0.03   0.00
  97   1     0.04   0.00  -0.01     0.06   0.02  -0.00     0.01   0.00  -0.00
  98   1     0.02   0.00  -0.03     0.04   0.02  -0.03     0.01  -0.01  -0.00
  99   1    -0.01   0.01   0.00     0.00  -0.01  -0.00     0.03   0.03   0.00
 100   1    -0.00   0.00   0.00    -0.01   0.00  -0.00     0.02   0.02   0.02
 101   1    -0.04  -0.00  -0.01     0.06   0.02   0.00     0.01   0.00   0.00
 102   1    -0.02  -0.00  -0.03     0.04   0.01   0.03     0.00   0.02   0.00
 103   1     0.00  -0.00  -0.00    -0.01   0.04   0.00    -0.00   0.01  -0.01
 104   1     0.00  -0.00   0.04     0.02   0.00   0.00     0.00   0.00  -0.03
 105   1    -0.03  -0.00  -0.01    -0.05   0.03  -0.00     0.01  -0.01   0.00
 106   1    -0.02   0.00  -0.02    -0.03   0.02  -0.02    -0.00  -0.01   0.00
 107   1     0.03   0.00  -0.01    -0.04   0.03   0.00    -0.02   0.01   0.00
 108   1     0.02  -0.00  -0.02    -0.03   0.01   0.02    -0.01   0.02   0.01
 109   1    -0.00   0.05   0.02    -0.00  -0.03  -0.00     0.00  -0.04  -0.00
 110   1    -0.00   0.03   0.04     0.01  -0.02  -0.01    -0.01  -0.03  -0.02
 111   1     0.00  -0.05   0.02    -0.00  -0.04   0.00    -0.00   0.03  -0.00
 112   1     0.00  -0.03   0.04     0.01  -0.02   0.02     0.01   0.02  -0.01
 113   1     0.00   0.04   0.01    -0.02  -0.06  -0.00    -0.01  -0.03  -0.00
 114   1     0.01   0.03   0.03    -0.02  -0.04  -0.03     0.01  -0.02  -0.01
 115   1    -0.00  -0.04   0.01    -0.02  -0.06   0.00     0.00   0.01  -0.00
 116   1    -0.01  -0.03   0.03    -0.01  -0.04   0.03    -0.01   0.01  -0.01
 117   1     0.00   0.02   0.01    -0.03   0.04   0.00    -0.02   0.04   0.00
 118   1    -0.00   0.01   0.01    -0.01   0.03   0.02    -0.02   0.02   0.02
 119   1     0.00  -0.01   0.01    -0.02   0.03  -0.02     0.02  -0.01   0.02
 120   1    -0.00  -0.02   0.01    -0.03   0.04  -0.00     0.02  -0.03   0.00
 121   1     0.00   0.00  -0.04     0.02   0.01   0.00     0.00   0.00  -0.02
 122   1     0.00   0.00  -0.02     0.01   0.01  -0.00     0.00   0.00   0.02
 123   1    -0.05   0.00  -0.02     0.03   0.00   0.00    -0.04   0.00  -0.00
 124   1    -0.03   0.00  -0.04     0.02  -0.01   0.01    -0.03  -0.00  -0.02
 125   1     0.03  -0.00  -0.04     0.01  -0.01  -0.01     0.03  -0.00  -0.02
 126   1     0.05  -0.00  -0.02     0.02   0.00  -0.00     0.05  -0.00  -0.00
                      7                      8                      9
                        a                      a                      a 
 Frequencies --    40.9836                41.1347                64.0069
 Red. masses --    12.8464                14.1684                14.9008
 Frc consts  --     0.0000                 0.0000                 0.0000
 IR Inten    --     0.0054                 0.0006                 0.0001
 Raman Activ --     0.0000                 0.0000                 0.0000
 Depolar     --     0.0000                 0.0000                 0.0000
 Atom AN      X      Y      Z        X      Y      Z        X      Y      Z
   1   7    -0.12   0.04   0.00    -0.03   0.04  -0.01    -0.02  -0.01  -0.00
   2   6    -0.09   0.01  -0.00     0.00  -0.00  -0.02    -0.00   0.00  -0.01
   3   6    -0.04   0.00   0.00     0.00  -0.00   0.02    -0.00  -0.00  -0.01
   4   7    -0.03   0.03   0.00     0.07   0.03  -0.00     0.07  -0.02  -0.05
   5   6    -0.07   0.04   0.00     0.03   0.05  -0.01     0.06  -0.01  -0.04
   6   7    -0.11   0.03  -0.00     0.04  -0.04  -0.01     0.02   0.01  -0.00
   7   6    -0.07   0.04  -0.00    -0.02  -0.05  -0.01    -0.06   0.01  -0.04
   8   7    -0.03   0.03   0.00    -0.07  -0.03  -0.00    -0.07   0.02  -0.05
   9   8    -0.09   0.07   0.01     0.05   0.08  -0.01     0.13  -0.03  -0.07
  10   8    -0.08   0.06  -0.01    -0.04  -0.09  -0.01    -0.13   0.03  -0.07
  11   7     0.05   0.06  -0.00     0.08   0.03  -0.01    -0.02  -0.05   0.05
  12   6     0.05   0.05   0.00    -0.00  -0.00   0.02     0.00   0.00   0.02
  13   6     0.05   0.05  -0.00    -0.00  -0.00  -0.02     0.00   0.00   0.01
  14   7     0.06   0.06  -0.00     0.00  -0.05  -0.01     0.01  -0.02   0.01
  15   6     0.05   0.06  -0.01     0.06  -0.01  -0.02    -0.03  -0.06   0.04
  16   7     0.05   0.05   0.00    -0.08  -0.04  -0.01     0.02   0.05   0.05
  17   6     0.05   0.06   0.00    -0.06   0.01  -0.02     0.03   0.06   0.04
  18   7     0.06   0.06   0.00    -0.00   0.05  -0.01    -0.01   0.02   0.01
  19   8     0.07   0.08  -0.01     0.10  -0.01  -0.03    -0.06  -0.12   0.07
  20   8     0.06   0.08   0.01    -0.11   0.01  -0.03     0.06   0.12   0.07
  21   7     0.03  -0.10  -0.00    -0.02  -0.10  -0.03     0.01  -0.03  -0.02
  22   6    -0.01  -0.04   0.00     0.00   0.00   0.02     0.00  -0.00  -0.00
  23   6     0.03   0.08  -0.00    -0.00  -0.00   0.00     0.00  -0.00  -0.01
  24   7     0.10   0.10   0.00     0.00  -0.05  -0.03    -0.01  -0.06  -0.05
  25   6     0.09  -0.01   0.00    -0.01  -0.11  -0.05    -0.02  -0.10  -0.06
  26   7     0.03  -0.10   0.00     0.02   0.11  -0.03    -0.01   0.03  -0.02
  27   6     0.09  -0.00  -0.00     0.01   0.11  -0.05     0.02   0.10  -0.06
  28   7     0.10   0.10  -0.00    -0.01   0.05  -0.03     0.01   0.06  -0.05
  29   8     0.15  -0.02   0.00    -0.03  -0.21  -0.09    -0.05  -0.21  -0.11
  30   8     0.14  -0.01  -0.00     0.02   0.21  -0.09     0.05   0.21  -0.11
  31   7    -0.15   0.03  -0.00    -0.04   0.05  -0.03     0.05  -0.04   0.05
  32   6    -0.08   0.05   0.00     0.00  -0.00   0.00     0.00   0.00   0.01
  33   6     0.01  -0.01   0.00    -0.00   0.00   0.02     0.00  -0.00   0.00
  34   7     0.01  -0.07  -0.00    -0.08   0.07  -0.03     0.02  -0.03   0.02
  35   6    -0.08  -0.04  -0.00    -0.09   0.08  -0.05     0.08  -0.06   0.06
  36   7    -0.14   0.02   0.00     0.05  -0.05  -0.04    -0.05   0.04   0.05
  37   6    -0.07  -0.04   0.00     0.09  -0.08  -0.05    -0.08   0.06   0.06
  38   7     0.01  -0.07  -0.00     0.08  -0.06  -0.03    -0.02   0.03   0.02
  39   8    -0.12  -0.07  -0.01    -0.17   0.15  -0.10     0.17  -0.13   0.11
  40   8    -0.11  -0.08   0.00     0.18  -0.15  -0.10    -0.17   0.13   0.11
  41   7     0.03  -0.02   0.00    -0.01  -0.10   0.02     0.01  -0.06   0.05
  42   6     0.00  -0.03  -0.00    -0.00   0.00  -0.02     0.00  -0.00   0.01
  43   6     0.01  -0.10  -0.00    -0.00   0.00   0.01     0.00  -0.00   0.01
  44   7     0.05  -0.12   0.00    -0.03  -0.01   0.02     0.01  -0.05   0.03
  45   6     0.05  -0.07   0.01    -0.03  -0.08   0.04     0.02  -0.12   0.07
  46   7     0.03  -0.01   0.00     0.01   0.10   0.02    -0.01   0.06   0.05
  47   6     0.05  -0.06  -0.00     0.03   0.09   0.04    -0.02   0.12   0.07
  48   7     0.05  -0.12  -0.00     0.03   0.02   0.03    -0.01   0.05   0.03
  49   8     0.08  -0.09   0.01    -0.05  -0.16   0.06     0.04  -0.26   0.13
  50   8     0.08  -0.07  -0.00     0.05   0.16   0.06    -0.04   0.26   0.13
  51   6     0.12   0.12  -0.03     0.02   0.02  -0.01    -0.01  -0.01  -0.00
  52   6     0.02   0.02  -0.00    -0.10  -0.04   0.02    -0.01  -0.01   0.01
  53   6     0.11   0.12   0.03    -0.03  -0.02  -0.01     0.01   0.01  -0.00
  54   6     0.02   0.03   0.01     0.10   0.03   0.02     0.01   0.01   0.01
  55   7    -0.06   0.00   0.00    -0.08   0.07   0.02     0.03  -0.05  -0.06
  56   6    -0.00   0.00  -0.00     0.00  -0.00  -0.02    -0.00  -0.00  -0.02
  57   6     0.05  -0.08   0.00    -0.00   0.00   0.01     0.00  -0.00  -0.01
  58   7     0.03  -0.14  -0.00    -0.03  -0.01   0.02     0.02  -0.06  -0.05
  59   6    -0.03  -0.08  -0.00    -0.08   0.04   0.03     0.06  -0.11  -0.09
  60   7    -0.06  -0.00  -0.00     0.08  -0.07   0.02    -0.03   0.05  -0.06
  61   6    -0.03  -0.08   0.00     0.08  -0.04   0.03    -0.06   0.11  -0.08
  62   7     0.03  -0.14   0.00     0.03   0.02   0.02    -0.02   0.06  -0.05
  63   8    -0.06  -0.12  -0.01    -0.14   0.08   0.06     0.13  -0.24  -0.15
  64   8    -0.05  -0.12   0.01     0.14  -0.08   0.06    -0.13   0.24  -0.15
  65   6    -0.09   0.04  -0.02    -0.08   0.05  -0.02     0.02  -0.01  -0.02
  66   6    -0.09   0.04   0.02     0.09  -0.05  -0.02    -0.02   0.01  -0.02
  67   6     0.03  -0.14  -0.03    -0.01   0.07   0.02    -0.00   0.06  -0.01
  68   6     0.03  -0.15   0.03     0.01  -0.07   0.02     0.00  -0.06  -0.01
  69   6     0.03   0.04   0.01    -0.03  -0.09  -0.02    -0.01  -0.04   0.01
  70   6     0.03   0.04  -0.01     0.03   0.09  -0.02     0.01   0.04   0.01
  71   6     0.05  -0.10  -0.02    -0.04   0.06   0.01     0.03  -0.04   0.01
  72   6     0.05  -0.10   0.02     0.03  -0.05   0.01    -0.03   0.04   0.01
  73   7    -0.11   0.02   0.00    -0.07  -0.04   0.03     0.03   0.03  -0.02
  74   6    -0.05  -0.02   0.00     0.00   0.00  -0.01     0.00  -0.00  -0.00
  75   6     0.08   0.03  -0.00    -0.00  -0.00  -0.02     0.00  -0.00   0.01
  76   7     0.09   0.10  -0.00    -0.09  -0.03   0.03    -0.04   0.00   0.03
  77   6    -0.02   0.09   0.00    -0.12  -0.05   0.05    -0.01   0.01   0.01
  78   7    -0.11   0.03  -0.00     0.08   0.03   0.03    -0.03  -0.03  -0.02
  79   6    -0.02   0.09   0.00     0.12   0.05   0.05     0.01  -0.01   0.01
  80   7     0.10   0.10   0.00     0.08   0.03   0.03     0.04  -0.00   0.03
  81   8    -0.04   0.14   0.00    -0.22  -0.09   0.10    -0.02   0.02   0.01
  82   8    -0.03   0.15   0.00     0.23   0.09   0.10     0.02  -0.02   0.01
  83   6    -0.15   0.02  -0.03    -0.01   0.00  -0.00    -0.02   0.00   0.01
  84   6    -0.15   0.02   0.03     0.02  -0.00  -0.01     0.02  -0.00   0.01
  85   1    -0.03  -0.01  -0.00     0.00   0.00  -0.02    -0.00  -0.00  -0.00
  86   1    -0.01  -0.01   0.00     0.00   0.00   0.02    -0.00  -0.00   0.01
  87   1     0.01   0.01   0.00    -0.00  -0.00   0.03     0.00   0.00  -0.00
  88   1     0.02   0.02   0.00    -0.00  -0.00  -0.02     0.00   0.00  -0.00
  89   1    -0.03  -0.02   0.00     0.00   0.00   0.03    -0.00  -0.00   0.01
  90   1    -0.01   0.04  -0.00     0.00  -0.00   0.01     0.00   0.00   0.01
  91   1    -0.02   0.04   0.00     0.00  -0.00   0.01    -0.00   0.00  -0.01
  92   1     0.02   0.01   0.00    -0.00  -0.00   0.03     0.00  -0.00  -0.01
  93   1    -0.01  -0.00  -0.00     0.00   0.00  -0.03    -0.00   0.00  -0.01
  94   1    -0.01  -0.04  -0.00     0.00   0.00   0.00    -0.00  -0.00  -0.01
  95   1     0.03   0.03  -0.03    -0.01   0.01  -0.01    -0.01   0.00   0.00
  96   1     0.05   0.05  -0.00     0.01   0.01  -0.00    -0.01  -0.00  -0.00
  97   1     0.01   0.01  -0.00    -0.04  -0.02   0.00    -0.00  -0.01   0.00
  98   1     0.01  -0.00  -0.00    -0.03  -0.01   0.02     0.00  -0.01   0.00
  99   1     0.05   0.05   0.00    -0.01  -0.01  -0.00     0.01   0.00  -0.00
 100   1     0.03   0.03   0.03     0.00  -0.02  -0.01     0.01  -0.00   0.00
 101   1     0.01   0.01   0.00     0.04   0.01   0.00     0.00   0.01   0.00
 102   1     0.01  -0.00   0.01     0.03   0.01   0.02    -0.00   0.01   0.00
 103   1     0.01   0.02  -0.00    -0.00  -0.00  -0.03     0.00   0.00   0.01
 104   1     0.04  -0.02   0.00    -0.00   0.00   0.01     0.00  -0.00   0.01
 105   1    -0.04   0.02  -0.00    -0.04   0.02  -0.00     0.01  -0.00  -0.01
 106   1    -0.02   0.02  -0.02    -0.03   0.01  -0.02     0.01   0.00   0.00
 107   1    -0.04   0.01   0.00     0.04  -0.02  -0.00    -0.01   0.00  -0.01
 108   1    -0.02   0.02   0.02     0.03  -0.01  -0.02    -0.01  -0.00   0.00
 109   1     0.01  -0.06  -0.00    -0.00   0.03   0.00    -0.00   0.03  -0.01
 110   1     0.00  -0.04  -0.02    -0.01   0.02   0.02     0.00   0.02   0.01
 111   1     0.01  -0.06   0.00     0.00  -0.03   0.00     0.00  -0.03  -0.01
 112   1     0.00  -0.04   0.03     0.01  -0.02   0.01    -0.00  -0.02   0.01
 113   1     0.01   0.01   0.00    -0.01  -0.04  -0.00    -0.01  -0.02   0.01
 114   1    -0.00   0.01   0.01    -0.01  -0.02  -0.02    -0.01  -0.01  -0.01
 115   1     0.01   0.02  -0.00     0.01   0.04  -0.00     0.01   0.02   0.01
 116   1    -0.00   0.01  -0.01     0.01   0.02  -0.02     0.01   0.01  -0.01
 117   1     0.02  -0.04  -0.00    -0.01   0.02   0.00     0.01  -0.02   0.01
 118   1     0.02  -0.02  -0.02     0.00   0.02   0.01     0.01  -0.01  -0.01
 119   1     0.02  -0.02   0.02    -0.00  -0.02   0.01    -0.01   0.01  -0.01
 120   1     0.02  -0.04   0.00     0.01  -0.02   0.00    -0.01   0.02   0.01
 121   1    -0.02  -0.03  -0.00     0.00   0.00  -0.02     0.00  -0.00   0.01
 122   1     0.04  -0.01  -0.00    -0.00   0.00  -0.02     0.00  -0.00  -0.00
 123   1    -0.06   0.01  -0.00    -0.01   0.00  -0.00    -0.01  -0.00   0.00
 124   1    -0.04   0.00  -0.03    -0.00   0.02  -0.00    -0.01  -0.01  -0.00
 125   1    -0.04   0.00   0.03     0.00  -0.02  -0.00     0.01   0.01  -0.00
 126   1    -0.06   0.01   0.00     0.01  -0.00  -0.00     0.01   0.00   0.00
                     10                     11                     12
                        a                      a                      a 
 Frequencies --    64.1136                64.9853                65.2334
 Red. masses --    14.9054                13.1755                13.1288
 Frc consts  --     0.0000                 0.0000                 0.0000
 IR Inten    --     0.0019                 0.0000                 0.0003
 Raman Activ --     0.0000                 0.0000                 0.0000
 Depolar     --     0.0000                 0.0000                 0.0000
 Atom AN      X      Y      Z        X      Y      Z        X      Y      Z
   1   7     0.08  -0.00  -0.06    -0.13   0.07   0.04    -0.02  -0.01   0.07
   2   6     0.00   0.00  -0.02     0.00   0.00  -0.02    -0.00  -0.00   0.05
   3   6    -0.00   0.00  -0.01     0.00  -0.00   0.06    -0.00  -0.00   0.04
   4   7     0.04   0.00  -0.04     0.12   0.05   0.02    -0.05  -0.00   0.07
   5   6     0.13  -0.01  -0.08    -0.01   0.09   0.03    -0.05  -0.01   0.07
   6   7    -0.08   0.00  -0.06     0.13  -0.07   0.04     0.02   0.01   0.07
   7   6    -0.13   0.01  -0.08     0.01  -0.09   0.03     0.05   0.01   0.07
   8   7    -0.04  -0.00  -0.04    -0.12  -0.05   0.02     0.05   0.00   0.07
   9   8     0.27  -0.02  -0.14    -0.03   0.16   0.04    -0.09  -0.01   0.10
  10   8    -0.27   0.02  -0.14     0.03  -0.16   0.04     0.09   0.01   0.10
  11   7     0.03   0.02  -0.03     0.12   0.05   0.02     0.06   0.04  -0.05
  12   6     0.00   0.00  -0.01     0.00  -0.00   0.06     0.00   0.00  -0.01
  13   6     0.00   0.00  -0.01     0.00   0.00  -0.01    -0.00   0.00  -0.03
  14   7     0.05   0.05  -0.05    -0.07  -0.15   0.05     0.01  -0.01  -0.04
  15   6     0.08   0.08  -0.07     0.04  -0.08   0.04     0.05   0.02  -0.05
  16   7    -0.03  -0.02  -0.03    -0.12  -0.05   0.02    -0.06  -0.04  -0.05
  17   6    -0.08  -0.08  -0.07    -0.04   0.08   0.04    -0.05  -0.02  -0.05
  18   7    -0.05  -0.05  -0.05     0.07   0.15   0.05    -0.01   0.01  -0.04
  19   8     0.17   0.17  -0.13     0.07  -0.13   0.05     0.10   0.05  -0.08
  20   8    -0.17  -0.17  -0.13    -0.07   0.13   0.05    -0.10  -0.05  -0.08
  21   7     0.03   0.04   0.04     0.02  -0.01   0.05    -0.00   0.15   0.03
  22   6    -0.00   0.00   0.01     0.00  -0.00   0.04    -0.00   0.00  -0.02
  23   6    -0.00  -0.00   0.00     0.00  -0.00   0.02    -0.00   0.00   0.05
  24   7     0.02   0.01   0.01     0.04   0.06   0.05    -0.09  -0.09   0.01
  25   6     0.04   0.07   0.05     0.04   0.04   0.06    -0.07   0.05   0.03
  26   7    -0.03  -0.04   0.04    -0.02   0.01   0.05     0.00  -0.15   0.03
  27   6    -0.04  -0.07   0.05    -0.04  -0.04   0.06     0.07  -0.05   0.03
  28   7    -0.02  -0.01   0.01    -0.04  -0.06   0.05     0.09   0.09   0.01
  29   8     0.09   0.15   0.08     0.07   0.09   0.08    -0.12   0.08   0.04
  30   8    -0.09  -0.15   0.08    -0.07  -0.09   0.09     0.12  -0.08   0.04
  31   7     0.01   0.01   0.01     0.05  -0.02   0.05     0.09  -0.00  -0.02
  32   6    -0.00  -0.00   0.01     0.00   0.00   0.02    -0.00  -0.00  -0.04
  33   6     0.00  -0.00   0.01     0.00   0.00   0.03    -0.00  -0.00   0.01
  34   7     0.07  -0.03   0.05     0.01   0.01   0.04    -0.07   0.09  -0.04
  35   6     0.07  -0.03   0.05     0.05  -0.00   0.05     0.02   0.07  -0.03
  36   7    -0.01  -0.01   0.01    -0.05   0.02   0.05    -0.09   0.00  -0.02
  37   6    -0.07   0.03   0.05    -0.05   0.00   0.05    -0.02  -0.07  -0.03
  38   7    -0.07   0.03   0.05    -0.01  -0.01   0.04     0.07  -0.09  -0.04
  39   8     0.16  -0.08   0.09     0.09  -0.01   0.07     0.02   0.11  -0.04
  40   8    -0.16   0.08   0.09    -0.09   0.01   0.07    -0.02  -0.11  -0.04
  41   7     0.02  -0.01   0.01    -0.03  -0.04  -0.06    -0.02  -0.09   0.03
  42   6    -0.00  -0.00   0.00     0.00  -0.00  -0.07    -0.00  -0.00  -0.00
  43   6    -0.00  -0.00  -0.01     0.00  -0.00  -0.02    -0.00  -0.00   0.03
  44   7     0.01   0.04  -0.03    -0.05   0.11  -0.08    -0.04   0.04   0.02
  45   6     0.02   0.04  -0.02    -0.06   0.06  -0.08    -0.04  -0.03   0.03
  46   7    -0.02   0.01   0.01     0.03   0.04  -0.06     0.02   0.09   0.03
  47   6    -0.02  -0.04  -0.02     0.06  -0.06  -0.08     0.04   0.03   0.03
  48   7    -0.01  -0.04  -0.03     0.05  -0.11  -0.08     0.04  -0.04   0.02
  49   8     0.03   0.07  -0.04    -0.10   0.12  -0.11    -0.06  -0.06   0.04
  50   8    -0.03  -0.07  -0.04     0.10  -0.12  -0.12     0.06   0.06   0.04
  51   6     0.04   0.04   0.01     0.04   0.01   0.00    -0.10  -0.11   0.05
  52   6    -0.04  -0.02  -0.02    -0.15  -0.06   0.06    -0.02   0.02   0.01
  53   6    -0.04  -0.04   0.01    -0.04  -0.01   0.00     0.10   0.11   0.05
  54   6     0.04   0.02  -0.02     0.15   0.06   0.06     0.02  -0.02   0.01
  55   7    -0.00   0.04   0.02    -0.07   0.03  -0.05     0.10  -0.08  -0.08
  56   6    -0.00  -0.00   0.01     0.00   0.00  -0.07    -0.00   0.00  -0.02
  57   6    -0.00   0.00   0.00     0.00   0.00  -0.02    -0.00  -0.00  -0.07
  58   7     0.04  -0.03  -0.02     0.04  -0.12  -0.07     0.01   0.06  -0.07
  59   6     0.02  -0.00  -0.00    -0.02  -0.07  -0.07     0.08  -0.02  -0.08
  60   7     0.00  -0.04   0.02     0.07  -0.03  -0.05    -0.10   0.08  -0.08
  61   6    -0.02   0.00  -0.00     0.02   0.07  -0.07    -0.08   0.02  -0.08
  62   7    -0.04   0.03  -0.02    -0.04   0.12  -0.07    -0.01  -0.06  -0.07
  63   8     0.04  -0.01  -0.01    -0.03  -0.13  -0.09     0.15  -0.06  -0.12
  64   8    -0.04   0.01  -0.01     0.03   0.13  -0.09    -0.15   0.06  -0.12
  65   6     0.02  -0.02  -0.01    -0.11   0.09  -0.04     0.08  -0.00   0.01
  66   6    -0.02   0.02  -0.01     0.11  -0.09  -0.04    -0.08   0.00   0.01
  67   6    -0.00  -0.01   0.01     0.02   0.09   0.01     0.04  -0.12  -0.05
  68   6     0.00   0.01   0.01    -0.02  -0.09   0.01    -0.04   0.12  -0.05
  69   6     0.01   0.04  -0.01    -0.01  -0.13  -0.04    -0.04  -0.05  -0.02
  70   6    -0.01  -0.04  -0.01     0.01   0.13  -0.04     0.04   0.05  -0.02
  71   6     0.01  -0.02   0.00    -0.07   0.05   0.00    -0.04   0.10   0.02
  72   6    -0.01   0.02   0.00     0.07  -0.05   0.00     0.04  -0.10   0.02
  73   7    -0.04  -0.02   0.05     0.02   0.01  -0.02    -0.15   0.00   0.04
  74   6    -0.00  -0.00   0.01     0.00   0.00  -0.01    -0.00  -0.00  -0.01
  75   6    -0.00  -0.00   0.01     0.00   0.00  -0.01    -0.00   0.00   0.05
  76   7    -0.06  -0.03   0.05     0.02   0.00  -0.02     0.08   0.09   0.02
  77   6    -0.12  -0.05   0.08     0.03   0.01  -0.03    -0.05   0.07   0.04
  78   7     0.04   0.02   0.05    -0.02  -0.01  -0.02     0.15  -0.00   0.04
  79   6     0.12   0.05   0.08    -0.03  -0.01  -0.03     0.05  -0.07   0.04
  80   7     0.06   0.03   0.05    -0.02  -0.00  -0.02    -0.08  -0.09   0.02
  81   8    -0.25  -0.11   0.14     0.05   0.01  -0.04    -0.10   0.11   0.05
  82   8     0.26   0.11   0.14    -0.05  -0.01  -0.04     0.10  -0.11   0.05
  83   6    -0.03   0.00   0.01    -0.02  -0.02   0.00    -0.14   0.03  -0.03
  84   6     0.03  -0.00   0.01     0.02   0.02   0.00     0.14  -0.03  -0.03
  85   1     0.00   0.00   0.01    -0.00   0.00  -0.04    -0.00  -0.00   0.01
  86   1    -0.00   0.00   0.01     0.00  -0.00   0.05    -0.00   0.00  -0.00
  87   1     0.00  -0.00   0.00     0.00  -0.00   0.05     0.00   0.00   0.01
  88   1     0.00   0.00   0.01     0.00   0.00  -0.04    -0.00   0.00  -0.01
  89   1    -0.00   0.00  -0.01     0.00  -0.00   0.01    -0.00  -0.00  -0.04
  90   1    -0.00  -0.00  -0.01     0.00  -0.00  -0.01     0.00   0.00   0.04
  91   1    -0.00   0.00   0.00    -0.00   0.00  -0.01    -0.00  -0.00  -0.03
  92   1     0.00  -0.00  -0.01     0.00   0.00   0.01     0.00  -0.00   0.03
  93   1    -0.00   0.00  -0.00     0.00  -0.00  -0.03    -0.00  -0.00  -0.02
  94   1    -0.00  -0.00   0.01     0.00  -0.00   0.02    -0.00  -0.00   0.02
  95   1     0.01   0.01  -0.01     0.02  -0.00  -0.00    -0.03  -0.03   0.04
  96   1     0.02   0.02   0.00     0.02   0.00   0.00    -0.05  -0.04   0.01
  97   1    -0.02  -0.01  -0.01    -0.06  -0.02   0.01    -0.01   0.01   0.00
  98   1    -0.01  -0.01   0.00    -0.04  -0.01   0.04    -0.01   0.02   0.01
  99   1    -0.02  -0.02   0.00    -0.02  -0.00   0.00     0.05   0.04   0.01
 100   1    -0.01  -0.01  -0.01    -0.02   0.00  -0.00     0.03   0.03   0.04
 101   1     0.02   0.01  -0.01     0.06   0.02   0.01     0.01  -0.01   0.00
 102   1     0.01   0.01   0.00     0.04   0.01   0.04     0.01  -0.02   0.01
 103   1    -0.00  -0.00  -0.00    -0.00   0.00  -0.04     0.00  -0.00   0.02
 104   1    -0.00   0.00   0.01     0.00   0.00   0.02    -0.00  -0.00  -0.03
 105   1     0.01  -0.01  -0.00    -0.04   0.04  -0.01     0.04   0.00   0.00
 106   1     0.00  -0.01   0.00    -0.02   0.03  -0.03     0.03   0.01   0.01
 107   1    -0.01   0.01  -0.00     0.04  -0.04  -0.01    -0.04  -0.00   0.00
 108   1    -0.00   0.01   0.00     0.02  -0.03  -0.03    -0.03  -0.01   0.01
 109   1     0.00  -0.00   0.00     0.01   0.04  -0.00     0.02  -0.05  -0.01
 110   1     0.01  -0.00   0.00     0.02   0.02   0.01     0.02  -0.03  -0.03
 111   1    -0.00   0.00   0.00    -0.01  -0.04  -0.00    -0.02   0.05  -0.01
 112   1    -0.01   0.00   0.00    -0.02  -0.03   0.01    -0.02   0.03  -0.03
 113   1     0.00   0.02  -0.00    -0.00  -0.06  -0.01    -0.02  -0.02  -0.00
 114   1    -0.00   0.01   0.01     0.01  -0.04  -0.03    -0.02  -0.01  -0.01
 115   1    -0.00  -0.02  -0.00     0.00   0.06  -0.01     0.02   0.02  -0.00
 116   1     0.00  -0.01   0.01    -0.01   0.04  -0.03     0.02   0.01  -0.01
 117   1     0.00  -0.01   0.00    -0.03   0.02  -0.00    -0.02   0.04   0.00
 118   1    -0.01  -0.01  -0.00    -0.03   0.01   0.01    -0.01   0.03   0.02
 119   1     0.01   0.01  -0.00     0.03  -0.01   0.01     0.01  -0.03   0.02
 120   1    -0.00   0.01   0.00     0.03  -0.02  -0.00     0.02  -0.04   0.00
 121   1    -0.00   0.00  -0.01     0.00  -0.00   0.00    -0.00  -0.00  -0.04
 122   1    -0.00  -0.00  -0.01     0.00  -0.00   0.00     0.00  -0.00   0.04
 123   1    -0.02   0.00   0.01    -0.01  -0.01   0.00    -0.06   0.02  -0.00
 124   1    -0.01   0.00  -0.00    -0.01  -0.01  -0.00    -0.04   0.01  -0.03
 125   1     0.01  -0.00  -0.00     0.01   0.01  -0.00     0.04  -0.01  -0.03
 126   1     0.02  -0.00   0.01     0.01   0.01   0.00     0.06  -0.02  -0.00
                     13                     14                     15
                        a                      a                      a 
 Frequencies --    65.4863                65.6187                78.7671
 Red. masses --    13.9406                13.8197                15.2163
 Frc consts  --     0.0000                 0.0000                 0.0000
 IR Inten    --     0.0001                 0.0002                 0.0007
 Raman Activ --     0.0000                 0.0000                 0.0000
 Depolar     --     0.0000                 0.0000                 0.0000
 Atom AN      X      Y      Z        X      Y      Z        X      Y      Z
   1   7    -0.01  -0.01   0.10     0.03  -0.01  -0.02    -0.04   0.02   0.00
   2   6     0.00  -0.00   0.08     0.00  -0.00  -0.01    -0.02  -0.00   0.00
   3   6    -0.00  -0.00   0.07    -0.00  -0.00  -0.03     0.03  -0.01   0.00
   4   7    -0.07  -0.00   0.10    -0.02  -0.00  -0.02     0.04   0.02   0.00
   5   6    -0.07  -0.01   0.11     0.01  -0.02  -0.02    -0.04   0.03   0.02
   6   7     0.01   0.01   0.10    -0.03   0.01  -0.02    -0.04   0.02  -0.00
   7   6     0.07   0.01   0.11    -0.01   0.02  -0.02    -0.04   0.03  -0.02
   8   7     0.07   0.00   0.10     0.02   0.00  -0.02     0.04   0.02  -0.00
   9   8    -0.14  -0.02   0.15     0.02  -0.04  -0.03    -0.11   0.07   0.05
  10   8     0.14   0.02   0.15    -0.02   0.04  -0.03    -0.11   0.07  -0.05
  11   7     0.05   0.04  -0.06     0.03   0.03  -0.10     0.05   0.02  -0.00
  12   6     0.00  -0.00  -0.03     0.00   0.00  -0.07     0.02   0.02   0.00
  13   6     0.00   0.00  -0.06     0.00   0.00  -0.07    -0.02  -0.02   0.00
  14   7    -0.01  -0.03  -0.06     0.03   0.01  -0.10    -0.02  -0.05   0.00
  15   6     0.04   0.01  -0.07     0.05   0.04  -0.11     0.02  -0.03   0.00
  16   7    -0.05  -0.04  -0.06    -0.03  -0.03  -0.10     0.05   0.02   0.00
  17   6    -0.04  -0.01  -0.07    -0.05  -0.04  -0.11     0.02  -0.03  -0.00
  18   7     0.01   0.03  -0.06    -0.03  -0.01  -0.10    -0.02  -0.05  -0.00
  19   8     0.09   0.02  -0.09     0.10   0.08  -0.15     0.03  -0.05   0.01
  20   8    -0.09  -0.02  -0.09    -0.10  -0.08  -0.15     0.03  -0.05  -0.01
  21   7    -0.02  -0.04  -0.12     0.00  -0.05   0.01     0.00  -0.01   0.01
  22   6    -0.00  -0.00  -0.09     0.00  -0.00   0.02    -0.01  -0.01   0.00
  23   6    -0.00  -0.00  -0.09     0.00  -0.00  -0.01    -0.00   0.00   0.00
  24   7    -0.01  -0.04  -0.12     0.03   0.05   0.01     0.01   0.01   0.01
  25   6    -0.03  -0.08  -0.13     0.03  -0.00   0.01     0.04   0.10   0.05
  26   7     0.02   0.04  -0.12    -0.00   0.05   0.01     0.00  -0.01  -0.01
  27   6     0.03   0.08  -0.13    -0.03   0.00   0.01     0.04   0.10  -0.05
  28   7     0.01   0.04  -0.12    -0.03  -0.05   0.01     0.01   0.01  -0.01
  29   8    -0.05  -0.16  -0.18     0.06  -0.01   0.01     0.11   0.27   0.13
  30   8     0.05   0.16  -0.18    -0.06   0.01   0.01     0.11   0.27  -0.13
  31   7    -0.01  -0.01   0.10     0.12  -0.03   0.08     0.03  -0.01   0.01
  32   6     0.00  -0.00   0.08     0.00   0.00   0.02     0.01  -0.01   0.00
  33   6     0.00  -0.00   0.06     0.00   0.00   0.08    -0.02   0.01   0.00
  34   7     0.06  -0.05   0.10    -0.04   0.06   0.06    -0.01   0.02   0.01
  35   6     0.04  -0.06   0.11     0.07   0.02   0.08     0.09  -0.03   0.04
  36   7     0.01   0.01   0.10    -0.12   0.03   0.08     0.03  -0.01  -0.01
  37   6    -0.04   0.06   0.11    -0.07  -0.02   0.08     0.09  -0.03  -0.04
  38   7    -0.06   0.05   0.10     0.04  -0.06   0.06    -0.01   0.02  -0.01
  39   8     0.09  -0.11   0.15     0.14   0.03   0.11     0.23  -0.10   0.11
  40   8    -0.09   0.11   0.15    -0.14  -0.03   0.11     0.23  -0.10  -0.11
  41   7    -0.01  -0.01  -0.08    -0.02  -0.12   0.08    -0.01  -0.04  -0.00
  42   6     0.00   0.00  -0.07     0.00   0.00   0.03     0.01  -0.03   0.00
  43   6     0.00  -0.00  -0.04     0.00   0.00   0.08    -0.00   0.02   0.00
  44   7    -0.02   0.06  -0.08    -0.04   0.05   0.07    -0.02   0.04  -0.01
  45   6    -0.03   0.05  -0.08    -0.05  -0.06   0.09    -0.04   0.05  -0.03
  46   7     0.01   0.01  -0.08     0.02   0.12   0.08    -0.01  -0.04   0.00
  47   6     0.03  -0.05  -0.08     0.05   0.06   0.09    -0.04   0.05   0.03
  48   7     0.02  -0.06  -0.08     0.04  -0.05   0.07    -0.02   0.04   0.01
  49   8    -0.05   0.10  -0.11    -0.08  -0.13   0.12    -0.07   0.14  -0.07
  50   8     0.05  -0.10  -0.11     0.08   0.13   0.12    -0.07   0.14   0.06
  51   6    -0.01   0.05  -0.04     0.03  -0.02  -0.05     0.01  -0.00  -0.00
  52   6    -0.02   0.04   0.02    -0.01   0.02  -0.05     0.05   0.02  -0.01
  53   6     0.01  -0.05  -0.04    -0.03   0.02  -0.05     0.01  -0.00   0.00
  54   6     0.02  -0.04   0.02     0.01  -0.02  -0.05     0.05   0.02   0.01
  55   7     0.05  -0.04   0.02    -0.03   0.03   0.08    -0.03   0.02  -0.01
  56   6     0.00  -0.00   0.04     0.00  -0.00   0.06    -0.01   0.02   0.00
  57   6    -0.00  -0.00  -0.00     0.00  -0.00   0.07     0.01  -0.01   0.00
  58   7    -0.02   0.08   0.03    -0.01  -0.00   0.08     0.01  -0.04  -0.01
  59   6     0.03   0.03   0.02    -0.03   0.03   0.09     0.03  -0.08  -0.04
  60   7    -0.05   0.04   0.02     0.03  -0.03   0.08    -0.03   0.02   0.01
  61   6    -0.03  -0.03   0.02     0.03  -0.03   0.09     0.03  -0.08   0.04
  62   7     0.02  -0.08   0.03     0.01   0.00   0.08     0.01  -0.04   0.01
  63   8     0.05   0.06   0.03    -0.07   0.06   0.12     0.09  -0.21  -0.10
  64   8    -0.05  -0.06   0.03     0.07  -0.06   0.12     0.09  -0.21   0.10
  65   6     0.05  -0.00   0.06    -0.02  -0.02   0.03    -0.04   0.03  -0.01
  66   6    -0.05   0.00   0.06     0.02   0.02   0.03    -0.04   0.03   0.01
  67   6    -0.03  -0.03  -0.05    -0.02   0.03   0.05    -0.00  -0.03  -0.01
  68   6     0.03   0.03  -0.05     0.02  -0.03   0.05    -0.00  -0.03   0.01
  69   6    -0.01  -0.03  -0.07    -0.06  -0.04  -0.02    -0.02  -0.05  -0.01
  70   6     0.01   0.03  -0.07     0.06   0.04  -0.02    -0.02  -0.05   0.01
  71   6    -0.03  -0.03   0.01    -0.05   0.08   0.08    -0.03   0.03   0.01
  72   6     0.03   0.03   0.01     0.05  -0.08   0.08    -0.03   0.03  -0.01
  73   7     0.06  -0.00   0.03     0.04   0.02  -0.12     0.00  -0.00   0.01
  74   6     0.00  -0.00   0.05     0.00  -0.00  -0.09     0.01   0.01   0.00
  75   6    -0.00  -0.00   0.01    -0.00  -0.00  -0.08     0.00   0.00   0.00
  76   7    -0.07  -0.05   0.04     0.05   0.02  -0.12    -0.01  -0.01   0.01
  77   6    -0.01  -0.05   0.04     0.08   0.03  -0.13    -0.10  -0.04   0.05
  78   7    -0.06   0.00   0.03    -0.04  -0.02  -0.12     0.00  -0.00  -0.01
  79   6     0.01   0.05   0.04    -0.08  -0.03  -0.13    -0.10  -0.04  -0.05
  80   7     0.07   0.05   0.04    -0.05  -0.02  -0.12    -0.01  -0.01  -0.01
  81   8    -0.03  -0.09   0.06     0.16   0.07  -0.18    -0.28  -0.11   0.13
  82   8     0.03   0.09   0.06    -0.16  -0.07  -0.18    -0.28  -0.11  -0.13
  83   6     0.04  -0.02   0.07    -0.06  -0.04  -0.03     0.02   0.01   0.00
  84   6    -0.04   0.02   0.07     0.06   0.04  -0.03     0.02   0.01  -0.00
  85   1     0.00  -0.00   0.02     0.00  -0.00   0.01    -0.01  -0.01   0.00
  86   1    -0.00   0.00   0.00    -0.00   0.00  -0.01     0.01  -0.01   0.00
  87   1     0.00  -0.00   0.01     0.00  -0.00  -0.01     0.00   0.02   0.00
  88   1     0.00   0.00  -0.02     0.00   0.00  -0.02    -0.02  -0.00   0.00
  89   1     0.00   0.00  -0.02     0.00  -0.00   0.02    -0.00  -0.00   0.00
  90   1     0.00  -0.00  -0.02     0.00  -0.00  -0.02    -0.00   0.00   0.00
  91   1     0.00  -0.00   0.03     0.00   0.00  -0.02     0.00  -0.01   0.00
  92   1     0.00  -0.00  -0.00     0.00  -0.00   0.04    -0.01  -0.00   0.00
  93   1    -0.00   0.00  -0.02     0.00   0.00  -0.02     0.01  -0.01   0.00
  94   1    -0.00  -0.00   0.00     0.00   0.00   0.04     0.01   0.01   0.00
  95   1    -0.01   0.02  -0.02     0.02  -0.01  -0.02     0.01  -0.01  -0.00
  96   1    -0.01   0.03  -0.01     0.02  -0.01  -0.01     0.00   0.00  -0.00
  97   1    -0.01   0.02   0.01    -0.01   0.01  -0.02     0.02   0.01  -0.00
  98   1    -0.01   0.02   0.01    -0.01   0.01  -0.01     0.01   0.00  -0.01
  99   1     0.01  -0.03  -0.01    -0.02   0.01  -0.01     0.00   0.00   0.00
 100   1     0.01  -0.02  -0.02    -0.02   0.01  -0.02     0.01  -0.01   0.00
 101   1     0.01  -0.02   0.01     0.01  -0.01  -0.02     0.02   0.01   0.00
 102   1     0.01  -0.02   0.01     0.01  -0.01  -0.01     0.02   0.00   0.01
 103   1     0.00  -0.00   0.03     0.00  -0.00   0.01     0.00   0.01   0.00
 104   1    -0.00  -0.00  -0.02     0.00  -0.00   0.02     0.01  -0.00   0.00
 105   1     0.02   0.00   0.02    -0.01  -0.01   0.01    -0.02   0.01  -0.00
 106   1     0.02   0.01   0.03    -0.01  -0.01   0.01    -0.01   0.01  -0.01
 107   1    -0.02  -0.00   0.02     0.01   0.01   0.01    -0.02   0.01   0.00
 108   1    -0.02  -0.01   0.03     0.01   0.01   0.01    -0.01   0.01   0.01
 109   1    -0.02  -0.01  -0.01    -0.01   0.01   0.01     0.00  -0.01  -0.00
 110   1    -0.02  -0.01  -0.02    -0.01   0.01   0.02    -0.01  -0.01  -0.01
 111   1     0.02   0.01  -0.01     0.01  -0.01   0.01     0.00  -0.01   0.00
 112   1     0.02   0.01  -0.02     0.01  -0.01   0.02    -0.01  -0.01   0.01
 113   1    -0.00  -0.01  -0.02    -0.03  -0.02  -0.00    -0.01  -0.02  -0.00
 114   1     0.00  -0.01  -0.02    -0.03  -0.01  -0.02    -0.00  -0.02  -0.01
 115   1     0.00   0.01  -0.02     0.03   0.02  -0.00    -0.01  -0.02   0.00
 116   1    -0.00   0.01  -0.02     0.03   0.01  -0.02    -0.00  -0.02   0.01
 117   1    -0.02  -0.02   0.00    -0.02   0.03   0.02    -0.01   0.01   0.00
 118   1    -0.02  -0.02   0.00    -0.01   0.02   0.04    -0.01   0.01   0.01
 119   1     0.02   0.02   0.00     0.01  -0.02   0.04    -0.01   0.01  -0.01
 120   1     0.02   0.02   0.00     0.02  -0.03   0.02    -0.01   0.01  -0.00
 121   1    -0.00  -0.00   0.03    -0.00  -0.00  -0.02     0.00   0.00   0.00
 122   1    -0.00  -0.00  -0.02    -0.00  -0.00  -0.01    -0.00   0.00   0.00
 123   1     0.02  -0.01   0.02    -0.03  -0.03  -0.01     0.01  -0.00   0.00
 124   1     0.01  -0.01   0.03    -0.02  -0.03  -0.02     0.01   0.01   0.00
 125   1    -0.01   0.01   0.03     0.02   0.03  -0.02     0.01   0.01  -0.00
 126   1    -0.02   0.01   0.02     0.03   0.03  -0.01     0.01  -0.00  -0.00
                     16                     17                     18
                        a                      a                      a 
 Frequencies --    78.8550                81.4542                86.1910
 Red. masses --    15.2091                15.0817                15.2694
 Frc consts  --     0.0000                 0.0000                 0.0000
 IR Inten    --     0.0013                21.9594                 0.0555
 Raman Activ --     0.0000                 0.0000                 0.0000
 Depolar     --     0.0000                 0.0000                 0.0000
 Atom AN      X      Y      Z        X      Y      Z        X      Y      Z
   1   7    -0.01   0.01  -0.01     0.02  -0.01   0.01     0.04  -0.03   0.00
   2   6    -0.02   0.00   0.00     0.00  -0.00   0.03     0.03  -0.02  -0.00
   3   6     0.00  -0.00   0.00    -0.00   0.00   0.03     0.01  -0.02  -0.00
   4   7     0.02   0.01  -0.01     0.03   0.00   0.01    -0.00  -0.03   0.00
   5   6     0.10   0.00  -0.05     0.10  -0.01  -0.02    -0.02  -0.03   0.02
   6   7    -0.01   0.01   0.01    -0.02   0.01   0.01     0.04  -0.03  -0.00
   7   6     0.10   0.00   0.05    -0.10   0.01  -0.02    -0.02  -0.03  -0.02
   8   7     0.02   0.01   0.01    -0.03  -0.00   0.01    -0.00  -0.03  -0.00
   9   8     0.28  -0.00  -0.13     0.23  -0.02  -0.07    -0.09  -0.04   0.05
  10   8     0.28  -0.00   0.12    -0.23   0.02  -0.07    -0.09  -0.04  -0.05
  11   7    -0.01  -0.00   0.01     0.02   0.01   0.01    -0.04  -0.04  -0.01
  12   6     0.01   0.01   0.00    -0.00  -0.00   0.03    -0.05  -0.05  -0.00
  13   6     0.01   0.01   0.00     0.00   0.00   0.03    -0.05  -0.05  -0.00
  14   7    -0.00   0.00   0.01     0.01   0.02   0.01    -0.04  -0.05  -0.01
  15   6    -0.08  -0.08   0.05     0.07   0.07  -0.02     0.05   0.05  -0.07
  16   7    -0.01  -0.00  -0.01    -0.02  -0.02   0.01    -0.04  -0.04   0.01
  17   6    -0.08  -0.08  -0.05    -0.07  -0.07  -0.02     0.05   0.05   0.07
  18   7    -0.00   0.00  -0.01    -0.01  -0.02   0.01    -0.04  -0.05   0.01
  19   8    -0.22  -0.22   0.14     0.16   0.16  -0.07     0.21   0.21  -0.16
  20   8    -0.22  -0.22  -0.14    -0.16  -0.16  -0.07     0.21   0.21   0.16
  21   7     0.01  -0.05  -0.00    -0.00  -0.03   0.01     0.03   0.02  -0.01
  22   6    -0.01  -0.02   0.00     0.00   0.00   0.03     0.02   0.03  -0.00
  23   6     0.01   0.03   0.00     0.00  -0.00   0.03     0.03   0.05  -0.00
  24   7     0.03   0.04  -0.00    -0.01  -0.02   0.01     0.04   0.05  -0.01
  25   6     0.02  -0.04  -0.02    -0.03  -0.09  -0.02     0.01  -0.06  -0.05
  26   7     0.01  -0.05   0.00     0.00   0.03   0.01     0.03   0.02   0.01
  27   6     0.02  -0.04   0.01     0.03   0.09  -0.02     0.01  -0.06   0.05
  28   7     0.03   0.04   0.00     0.01   0.02   0.01     0.04   0.05   0.01
  29   8     0.03  -0.10  -0.04    -0.07  -0.22  -0.07    -0.03  -0.21  -0.11
  30   8     0.03  -0.10   0.04     0.07   0.22  -0.07    -0.03  -0.21   0.11
  31   7    -0.04   0.00   0.00    -0.02   0.01   0.02    -0.04   0.04   0.01
  32   6    -0.02   0.02   0.00    -0.00   0.00   0.03    -0.05   0.04  -0.00
  33   6     0.02  -0.01   0.00    -0.00   0.00   0.03    -0.06   0.04  -0.00
  34   7     0.03  -0.04   0.01    -0.02   0.02   0.01    -0.05   0.04   0.01
  35   6     0.04  -0.06   0.03    -0.08   0.05  -0.02     0.06  -0.02   0.06
  36   7    -0.04   0.00  -0.00     0.02  -0.01   0.02    -0.04   0.04  -0.01
  37   6     0.04  -0.06  -0.03     0.08  -0.05  -0.02     0.06  -0.02  -0.06
  38   7     0.03  -0.04  -0.01     0.02  -0.02   0.01    -0.05   0.04  -0.01
  39   8     0.12  -0.13   0.08    -0.19   0.12  -0.07     0.24  -0.12   0.15
  40   8     0.12  -0.13  -0.08     0.19  -0.12  -0.07     0.24  -0.12  -0.15
  41   7     0.01   0.03  -0.01     0.00   0.03   0.01    -0.03  -0.01   0.00
  42   6    -0.00   0.01   0.00    -0.00   0.00   0.03    -0.01  -0.01  -0.00
  43   6     0.00  -0.02   0.00    -0.00   0.00   0.03    -0.02   0.02  -0.00
  44   7     0.01  -0.02  -0.01    -0.01   0.02   0.01    -0.03   0.03   0.00
  45   6     0.00   0.10  -0.05    -0.01   0.10  -0.02    -0.03  -0.01   0.01
  46   7     0.01   0.03   0.01    -0.00  -0.03   0.01    -0.03  -0.01  -0.00
  47   6     0.00   0.10   0.05     0.01  -0.10  -0.02    -0.03  -0.01  -0.01
  48   7     0.01  -0.02   0.01     0.01  -0.02   0.01    -0.03   0.02  -0.00
  49   8    -0.00   0.27  -0.12    -0.03   0.23  -0.07    -0.04  -0.04   0.02
  50   8    -0.00   0.27   0.12     0.03  -0.23  -0.07    -0.04  -0.04  -0.02
  51   6     0.04   0.04  -0.01    -0.02  -0.02   0.03     0.03   0.03  -0.00
  52   6     0.01   0.01  -0.00    -0.03  -0.01   0.03    -0.02  -0.03   0.00
  53   6     0.04   0.04   0.01     0.02   0.02   0.03     0.03   0.03   0.00
  54   6     0.01   0.01   0.00     0.03   0.01   0.03    -0.02  -0.03  -0.00
  55   7    -0.04   0.02   0.01     0.02  -0.02   0.02     0.05  -0.05   0.01
  56   6    -0.01   0.02   0.00     0.00  -0.00   0.03     0.05  -0.05  -0.00
  57   6     0.02  -0.02   0.00     0.00  -0.00   0.03     0.04  -0.04  -0.00
  58   7     0.00  -0.04   0.00     0.01  -0.02   0.01     0.04  -0.03   0.01
  59   6    -0.06   0.05   0.04     0.05  -0.08  -0.02    -0.02   0.06   0.06
  60   7    -0.04   0.02  -0.01    -0.02   0.02   0.02     0.05  -0.05  -0.01
  61   6    -0.06   0.05  -0.04    -0.05   0.08  -0.02    -0.02   0.06  -0.06
  62   7     0.00  -0.04  -0.00    -0.01   0.03   0.01     0.04  -0.03  -0.01
  63   8    -0.15   0.14   0.09     0.12  -0.19  -0.06    -0.11   0.22   0.14
  64   8    -0.15   0.14  -0.09    -0.12   0.19  -0.07    -0.11   0.22  -0.14
  65   6    -0.03   0.01  -0.01     0.03  -0.02   0.03     0.03  -0.03   0.00
  66   6    -0.03   0.01   0.01    -0.03   0.02   0.03     0.03  -0.03  -0.00
  67   6     0.01  -0.05  -0.01    -0.00   0.04   0.03     0.03  -0.00  -0.00
  68   6     0.01  -0.05   0.01     0.00  -0.04   0.03     0.03  -0.00   0.00
  69   6     0.01   0.01   0.00     0.01   0.03   0.03    -0.03  -0.02  -0.00
  70   6     0.01   0.01  -0.00    -0.01  -0.03   0.03    -0.03  -0.02   0.00
  71   6     0.02  -0.04  -0.01    -0.02   0.03   0.03    -0.03   0.03   0.00
  72   6     0.02  -0.04   0.01     0.02  -0.03   0.03    -0.03   0.03  -0.00
  73   7    -0.05   0.00   0.00     0.03   0.00   0.01     0.01   0.03   0.00
  74   6    -0.03  -0.01   0.00     0.00   0.00   0.03     0.02   0.02  -0.00
  75   6     0.03   0.01   0.00     0.00   0.00   0.03     0.04   0.03  -0.00
  76   7     0.04   0.04   0.00     0.02   0.01   0.01     0.04   0.04   0.01
  77   6    -0.03   0.03   0.01     0.09   0.03  -0.02    -0.05   0.01   0.04
  78   7    -0.05   0.00  -0.00    -0.03  -0.00   0.01     0.01   0.03  -0.00
  79   6    -0.03   0.02  -0.01    -0.09  -0.03  -0.02    -0.05   0.01  -0.04
  80   7     0.04   0.04   0.00    -0.02  -0.01   0.01     0.04   0.04  -0.01
  81   8    -0.07   0.04   0.02     0.22   0.08  -0.07    -0.18  -0.02   0.09
  82   8    -0.07   0.04  -0.02    -0.22  -0.08  -0.07    -0.17  -0.02  -0.09
  83   6    -0.05   0.01  -0.01     0.04  -0.00   0.03    -0.01   0.03  -0.00
  84   6    -0.05   0.01   0.01    -0.04   0.00   0.03    -0.01   0.03   0.00
  85   1    -0.01  -0.00   0.00     0.00   0.00   0.01     0.01  -0.00  -0.00
  86   1     0.00  -0.01   0.00    -0.00   0.00   0.01     0.00   0.00  -0.00
  87   1     0.00  -0.00   0.00    -0.00  -0.00   0.01    -0.01  -0.01  -0.00
  88   1     0.00   0.00   0.00     0.00  -0.00   0.01    -0.01  -0.02  -0.00
  89   1    -0.02  -0.01   0.00     0.00   0.00   0.01     0.00   0.01  -0.00
  90   1    -0.01   0.02   0.00     0.00  -0.00   0.01     0.01   0.02  -0.00
  91   1    -0.01   0.01   0.00    -0.00   0.00   0.02    -0.01   0.01  -0.00
  92   1     0.01   0.00   0.00    -0.00   0.00   0.01    -0.02   0.01  -0.00
  93   1    -0.01   0.00   0.00    -0.00   0.00   0.01     0.00  -0.00  -0.00
  94   1    -0.00  -0.01   0.00    -0.00  -0.00   0.01    -0.00   0.01  -0.00
  95   1     0.01   0.01  -0.01    -0.01  -0.01   0.01     0.01   0.01   0.00
  96   1     0.02   0.02  -0.00    -0.01  -0.01   0.01     0.01   0.01  -0.00
  97   1     0.00   0.00  -0.00    -0.02  -0.01   0.01    -0.00  -0.01   0.00
  98   1    -0.00   0.01  -0.00    -0.01  -0.00   0.02    -0.01  -0.01  -0.00
  99   1     0.02   0.02   0.00     0.01   0.01   0.01     0.01   0.01   0.00
 100   1     0.01   0.01   0.01     0.01   0.01   0.01     0.01   0.01  -0.00
 101   1     0.00   0.00   0.00     0.02   0.01   0.01    -0.00  -0.01  -0.00
 102   1    -0.00   0.01   0.00     0.01   0.00   0.02    -0.01  -0.01   0.00
 103   1     0.00   0.01   0.00     0.00  -0.00   0.01     0.01  -0.02  -0.00
 104   1     0.01  -0.00   0.00    -0.00  -0.00   0.02     0.01  -0.01  -0.00
 105   1    -0.01   0.01  -0.00     0.01  -0.01   0.01     0.01  -0.01   0.00
 106   1    -0.01  -0.00  -0.01     0.01  -0.00   0.02     0.01  -0.01  -0.00
 107   1    -0.01   0.01   0.00    -0.01   0.01   0.01     0.01  -0.01  -0.00
 108   1    -0.01  -0.00   0.01    -0.01   0.00   0.01     0.01  -0.01   0.00
 109   1     0.00  -0.02  -0.00    -0.00   0.02   0.01     0.01  -0.00  -0.00
 110   1     0.01  -0.01  -0.01    -0.00   0.01   0.02     0.00  -0.00   0.00
 111   1     0.00  -0.02   0.00     0.00  -0.02   0.01     0.01  -0.00   0.00
 112   1     0.01  -0.01   0.01     0.00  -0.01   0.02     0.00  -0.00  -0.00
 113   1     0.00   0.01   0.00     0.01   0.02   0.01    -0.01  -0.00  -0.00
 114   1     0.01   0.00   0.00     0.00   0.01   0.02    -0.01  -0.01   0.00
 115   1     0.00   0.01  -0.00    -0.01  -0.02   0.01    -0.01  -0.00   0.00
 116   1     0.01   0.00  -0.00    -0.00  -0.01   0.02    -0.01  -0.01  -0.00
 117   1     0.01  -0.01  -0.00    -0.01   0.01   0.01    -0.01   0.00   0.00
 118   1     0.00  -0.01  -0.01    -0.00   0.01   0.02    -0.01   0.01  -0.00
 119   1     0.00  -0.01   0.01     0.00  -0.01   0.02    -0.01   0.01   0.00
 120   1     0.01  -0.01   0.00     0.01  -0.01   0.01    -0.01   0.00  -0.00
 121   1    -0.01  -0.02   0.00     0.00   0.00   0.01     0.01   0.00  -0.00
 122   1     0.02  -0.01   0.00     0.00   0.00   0.01     0.01   0.01  -0.00
 123   1    -0.02   0.00  -0.00     0.02  -0.00   0.01    -0.00   0.01  -0.00
 124   1    -0.01   0.00  -0.01     0.01  -0.00   0.02    -0.00   0.00   0.00
 125   1    -0.01   0.00   0.01    -0.01   0.00   0.02    -0.00   0.00  -0.00
 126   1    -0.02   0.00   0.00    -0.02   0.00   0.01    -0.00   0.01   0.00
                     19                     20                     21
                        a                      a                      a 
 Frequencies --    86.2784                87.2401                88.5845
 Red. masses --    15.2719                15.3805                15.2852
 Frc consts  --     0.0000                 0.0000                 0.0000
 IR Inten    --     0.0080                 0.0001                23.3488
 Raman Activ --     0.0000                 0.0000                 0.0000
 Depolar     --     0.0000                 0.0000                 0.0000
 Atom AN      X      Y      Z        X      Y      Z        X      Y      Z
   1   7    -0.05  -0.00  -0.01     0.01  -0.00  -0.01    -0.01  -0.04  -0.00
   2   6    -0.06   0.00  -0.00    -0.00   0.00   0.00    -0.01  -0.04  -0.00
   3   6    -0.07   0.00   0.00    -0.00   0.00   0.00    -0.01  -0.04  -0.00
   4   7    -0.07  -0.00  -0.01     0.01   0.00  -0.01    -0.01  -0.04  -0.00
   5   6     0.07  -0.02  -0.06     0.09  -0.01  -0.04     0.01  -0.04  -0.01
   6   7    -0.05  -0.00   0.01     0.01  -0.00   0.01    -0.01  -0.04   0.00
   7   6     0.07  -0.02   0.06     0.09  -0.01   0.04     0.01  -0.04   0.01
   8   7    -0.07  -0.00   0.01     0.01   0.00   0.01    -0.01  -0.04   0.00
   9   8     0.28  -0.04  -0.16     0.23  -0.02  -0.10     0.05  -0.05  -0.03
  10   8     0.28  -0.04   0.16     0.23  -0.02   0.10     0.05  -0.05   0.03
  11   7    -0.04   0.00  -0.00     0.01   0.00  -0.01    -0.01  -0.04  -0.01
  12   6    -0.03  -0.00   0.00     0.00   0.00   0.00    -0.02  -0.05   0.00
  13   6    -0.01   0.02   0.00     0.00  -0.00   0.00    -0.02  -0.05   0.00
  14   7    -0.01   0.03  -0.00     0.00   0.01  -0.01    -0.01  -0.04  -0.01
  15   6    -0.02   0.03  -0.01     0.06   0.06  -0.04     0.06   0.04  -0.06
  16   7    -0.04   0.00   0.00     0.01   0.00   0.01    -0.01  -0.04   0.01
  17   6    -0.02   0.03   0.01     0.06   0.06   0.04     0.06   0.04   0.06
  18   7    -0.01   0.03   0.00     0.00   0.01   0.01    -0.01  -0.04   0.01
  19   8    -0.02   0.05  -0.01     0.15   0.16  -0.09     0.20   0.18  -0.14
  20   8    -0.02   0.05   0.01     0.15   0.16   0.09     0.20   0.18   0.14
  21   7    -0.00  -0.06   0.01    -0.00  -0.01  -0.01    -0.01  -0.04   0.01
  22   6    -0.01  -0.06   0.00    -0.00   0.00   0.00    -0.02  -0.06   0.00
  23   6    -0.00  -0.04   0.00     0.00   0.00   0.00    -0.02  -0.05   0.00
  24   7     0.01  -0.04   0.01    -0.01  -0.01  -0.01    -0.01  -0.04   0.01
  25   6     0.04   0.04   0.05    -0.03  -0.08  -0.04     0.03   0.08   0.07
  26   7    -0.00  -0.06  -0.01    -0.00  -0.01   0.01    -0.01  -0.04  -0.01
  27   6     0.04   0.04  -0.05    -0.03  -0.08   0.04     0.03   0.08  -0.07
  28   7     0.01  -0.04  -0.01    -0.01  -0.01   0.01    -0.01  -0.04  -0.01
  29   8     0.10   0.19   0.11    -0.07  -0.21  -0.09     0.10   0.28   0.16
  30   8     0.10   0.19  -0.11    -0.07  -0.21   0.09     0.10   0.28  -0.16
  31   7     0.05   0.00  -0.00    -0.01   0.00  -0.01    -0.01  -0.04  -0.00
  32   6     0.04  -0.01  -0.00     0.00  -0.00  -0.00    -0.00  -0.04  -0.00
  33   6     0.02   0.01  -0.00     0.00  -0.00  -0.00    -0.01  -0.04  -0.00
  34   7     0.02   0.02  -0.00    -0.00   0.00  -0.01    -0.01  -0.04  -0.00
  35   6    -0.00   0.04  -0.02    -0.08   0.05  -0.04    -0.04  -0.02  -0.02
  36   7     0.05   0.00   0.00    -0.01   0.00   0.01    -0.01  -0.04   0.00
  37   6    -0.00   0.04   0.02    -0.08   0.05   0.04    -0.04  -0.02   0.02
  38   7     0.02   0.02   0.00    -0.00   0.00   0.01    -0.01  -0.04   0.00
  39   8    -0.06   0.09  -0.06    -0.20   0.12  -0.10    -0.09   0.01  -0.04
  40   8    -0.06   0.09   0.06    -0.20   0.12   0.10    -0.09   0.01   0.04
  41   7    -0.01   0.06   0.01     0.00   0.01  -0.01    -0.01  -0.04  -0.01
  42   6    -0.01   0.07  -0.00     0.00  -0.00  -0.00    -0.01  -0.05   0.00
  43   6    -0.01   0.07  -0.00     0.00  -0.00  -0.00    -0.01  -0.05   0.00
  44   7    -0.00   0.06   0.01    -0.00   0.00  -0.01    -0.01  -0.04  -0.01
  45   6     0.01  -0.07   0.07    -0.01   0.09  -0.04    -0.02   0.07  -0.06
  46   7    -0.01   0.06  -0.01     0.00   0.01   0.01    -0.01  -0.04   0.01
  47   6     0.01  -0.07  -0.07    -0.01   0.09   0.04    -0.02   0.07   0.06
  48   7    -0.00   0.06  -0.01    -0.00   0.01   0.01    -0.01  -0.04   0.01
  49   8     0.04  -0.29   0.16    -0.03   0.23  -0.10    -0.05   0.27  -0.14
  50   8     0.04  -0.29  -0.16    -0.03   0.23   0.10    -0.05   0.27   0.14
  51   6     0.02  -0.01  -0.00    -0.02  -0.02   0.00     0.01  -0.02  -0.00
  52   6    -0.04   0.00   0.00     0.02   0.01  -0.00     0.00  -0.03  -0.00
  53   6     0.02  -0.01   0.00    -0.02  -0.02  -0.00     0.01  -0.02   0.00
  54   6    -0.04   0.00  -0.00     0.02   0.01   0.00     0.00  -0.03   0.00
  55   7    -0.01  -0.02   0.00     0.01  -0.00  -0.01    -0.01  -0.04   0.01
  56   6     0.00  -0.03  -0.00    -0.00   0.00  -0.00    -0.00  -0.05  -0.00
  57   6     0.01  -0.05  -0.00    -0.00   0.00  -0.00    -0.00  -0.05   0.00
  58   7     0.01  -0.05   0.00     0.00  -0.01  -0.01    -0.01  -0.04   0.01
  59   6    -0.04   0.01   0.03     0.05  -0.07  -0.04    -0.05   0.03   0.04
  60   7    -0.01  -0.02  -0.00     0.00  -0.00   0.01    -0.01  -0.04  -0.01
  61   6    -0.04   0.01  -0.03     0.05  -0.07   0.04    -0.05   0.03  -0.04
  62   7     0.01  -0.05  -0.00     0.00  -0.01   0.01    -0.01  -0.04  -0.01
  63   8    -0.11   0.09   0.08     0.13  -0.20  -0.10    -0.14   0.16   0.11
  64   8    -0.11   0.09  -0.08     0.13  -0.20   0.10    -0.14   0.16  -0.11
  65   6    -0.03  -0.01  -0.00     0.02  -0.01   0.00    -0.02  -0.03  -0.00
  66   6    -0.03  -0.01   0.00     0.02  -0.01  -0.00    -0.02  -0.03   0.00
  67   6     0.00  -0.04  -0.00     0.00  -0.02  -0.00    -0.01  -0.02   0.00
  68   6     0.00  -0.04   0.00     0.00  -0.02   0.00    -0.01  -0.02  -0.00
  69   6    -0.01   0.04   0.00     0.01   0.02   0.00    -0.00  -0.01   0.00
  70   6    -0.01   0.04  -0.00     0.01   0.02  -0.00    -0.00  -0.01  -0.00
  71   6     0.01   0.03   0.00    -0.01   0.02   0.00    -0.02  -0.02   0.00
  72   6     0.01   0.03  -0.00    -0.01   0.02  -0.00    -0.02  -0.02  -0.00
  73   7     0.06   0.01   0.01    -0.01  -0.00   0.01    -0.01  -0.04  -0.00
  74   6     0.07   0.01   0.00     0.00  -0.00   0.00    -0.02  -0.04   0.00
  75   6     0.05   0.01   0.00     0.00  -0.00   0.00    -0.02  -0.04   0.00
  76   7     0.04  -0.00   0.01    -0.01  -0.01   0.01    -0.01  -0.04  -0.01
  77   6    -0.05  -0.04   0.05    -0.08  -0.03   0.04     0.05  -0.01  -0.04
  78   7     0.06   0.01  -0.01    -0.01  -0.00  -0.01    -0.01  -0.04   0.00
  79   6    -0.05  -0.04  -0.05    -0.08  -0.03  -0.04     0.05  -0.01   0.04
  80   7     0.04  -0.00  -0.01    -0.01  -0.01  -0.01    -0.01  -0.04   0.01
  81   8    -0.22  -0.11   0.13    -0.21  -0.08   0.09     0.17   0.03  -0.09
  82   8    -0.22  -0.11  -0.13    -0.21  -0.08  -0.09     0.17   0.03   0.09
  83   6     0.04   0.00   0.00    -0.02   0.00  -0.00    -0.01  -0.04   0.00
  84   6     0.04   0.00  -0.00    -0.02   0.00   0.00    -0.01  -0.04  -0.00
[...]
   6   7     0.00   0.00  -0.00     0.00   0.00  -0.00    -0.00  -0.00   0.00
   7   6    -0.00  -0.00   0.00    -0.00   0.00   0.00     0.00  -0.00  -0.00
   8   7     0.00  -0.00  -0.00    -0.00   0.00   0.00    -0.00   0.00   0.00
   9   8    -0.00   0.00  -0.00    -0.00  -0.00  -0.00     0.00  -0.00   0.00
  10   8     0.00  -0.00  -0.00     0.00   0.00  -0.00    -0.00   0.00   0.00
  11   7    -0.00  -0.00  -0.00     0.00   0.00   0.00     0.00   0.00   0.00
  12   6    -0.00   0.00  -0.00    -0.00   0.00   0.00    -0.00   0.00   0.00
  13   6    -0.00   0.00  -0.00     0.00  -0.00   0.00    -0.00  -0.00   0.00
  14   7    -0.00  -0.00  -0.00     0.00   0.00   0.00     0.00   0.00   0.00
  15   6     0.00   0.00   0.00     0.00  -0.00  -0.00    -0.00  -0.00  -0.00
  16   7     0.00   0.00  -0.00    -0.00  -0.00   0.00    -0.00  -0.00   0.00
  17   6    -0.00  -0.00   0.00    -0.00   0.00  -0.00     0.00   0.00  -0.00
  18   7     0.00   0.00  -0.00    -0.00  -0.00   0.00    -0.00  -0.00   0.00
  19   8    -0.00  -0.00  -0.00     0.00  -0.00   0.00     0.00   0.00   0.00
  20   8     0.00   0.00  -0.00    -0.00   0.00   0.00    -0.00  -0.00   0.00
  21   7    -0.00  -0.00   0.00     0.00   0.00  -0.00    -0.00  -0.00   0.00
  22   6    -0.00   0.00   0.00    -0.00   0.00  -0.00     0.00  -0.00   0.00
  23   6    -0.00   0.00   0.00    -0.00  -0.00  -0.00    -0.00  -0.00   0.00
  24   7     0.00  -0.00   0.00    -0.00   0.00  -0.00     0.00  -0.00   0.00
  25   6     0.00   0.00  -0.00     0.00  -0.00   0.00     0.00   0.00  -0.00
  26   7     0.00   0.00   0.00    -0.00  -0.00  -0.00     0.00   0.00   0.00
  27   6    -0.00  -0.00  -0.00    -0.00   0.00   0.00    -0.00  -0.00  -0.00
  28   7    -0.00   0.00   0.00     0.00  -0.00  -0.00    -0.00   0.00   0.00
  29   8     0.00  -0.00   0.00     0.00   0.00  -0.00    -0.00  -0.00   0.00
  30   8    -0.00   0.00   0.00    -0.00  -0.00  -0.00     0.00   0.00   0.00
  31   7    -0.00   0.00   0.00    -0.00   0.00   0.00    -0.00   0.00   0.00
  32   6     0.00   0.00   0.00    -0.00  -0.00   0.00    -0.00  -0.00   0.00
  33   6     0.00   0.00   0.00     0.00   0.00   0.00     0.00   0.00   0.00
  34   7    -0.00  -0.00   0.00    -0.00  -0.00   0.00    -0.00  -0.00   0.00
  35   6     0.00   0.00  -0.00     0.00  -0.00  -0.00     0.00  -0.00  -0.00
  36   7     0.00  -0.00   0.00     0.00  -0.00   0.00     0.00  -0.00   0.00
  37   6    -0.00  -0.00  -0.00    -0.00   0.00  -0.00    -0.00   0.00  -0.00
  38   7     0.00   0.00   0.00     0.00   0.00   0.00     0.00   0.00   0.00
  39   8    -0.00   0.00   0.00    -0.00  -0.00   0.00    -0.00   0.00   0.00
  40   8     0.00  -0.00   0.00     0.00   0.00   0.00     0.00  -0.00   0.00
  41   7     0.00  -0.00  -0.00    -0.00   0.00   0.00    -0.00   0.00   0.00
  42   6     0.00   0.00  -0.00    -0.00   0.00   0.00     0.00   0.00   0.00
  43   6    -0.00   0.00   0.00    -0.00   0.00   0.00    -0.00   0.00   0.00
  44   7     0.00   0.00   0.00     0.00   0.00   0.00     0.00   0.00   0.00
  45   6     0.00   0.00   0.00     0.00  -0.00  -0.00     0.00  -0.00  -0.00
  46   7    -0.00   0.00  -0.00     0.00  -0.00   0.00     0.00  -0.00   0.00
  47   6    -0.00  -0.00   0.00    -0.00   0.00  -0.00    -0.00   0.00  -0.00
  48   7    -0.00  -0.00   0.00    -0.00  -0.00   0.00    -0.00  -0.00   0.00
  49   8     0.00  -0.00  -0.00     0.00   0.00   0.00    -0.00   0.00   0.00
  50   8    -0.00   0.00  -0.00    -0.00  -0.00   0.00     0.00  -0.00   0.00
  51   6    -0.02  -0.02   0.08     0.01   0.01  -0.04    -0.02  -0.02   0.07
  52   6     0.03   0.01  -0.09    -0.00  -0.00   0.00    -0.02  -0.01   0.07
  53   6     0.02   0.02   0.08    -0.01  -0.01  -0.04     0.02   0.02   0.06
  54   6    -0.03  -0.01  -0.10     0.00   0.00   0.00     0.02   0.01   0.06
  55   7     0.00   0.00  -0.00     0.00   0.00  -0.00    -0.00  -0.00   0.00
  56   6    -0.00   0.00  -0.00    -0.00   0.00  -0.00    -0.00  -0.00   0.00
  57   6     0.00   0.00   0.00     0.00   0.00  -0.00    -0.00  -0.00   0.00
  58   7     0.00  -0.00   0.00    -0.00   0.00  -0.00     0.00  -0.00   0.00
  59   6     0.00   0.00   0.00     0.00  -0.00   0.00    -0.00   0.00  -0.00
  60   7    -0.00  -0.00  -0.00    -0.00  -0.00  -0.00     0.00   0.00   0.00
  61   6    -0.00  -0.00   0.00    -0.00   0.00   0.00     0.00  -0.00  -0.00
  62   7    -0.00   0.00   0.00     0.00  -0.00  -0.00    -0.00   0.00   0.00
  63   8     0.00   0.00  -0.00    -0.00   0.00  -0.00     0.00  -0.00   0.00
  64   8    -0.00  -0.00  -0.00     0.00  -0.00  -0.00    -0.00   0.00   0.00
  65   6    -0.02   0.01  -0.06    -0.02   0.01  -0.07     0.02  -0.01   0.06
  66   6     0.02  -0.01  -0.05     0.02  -0.01  -0.07    -0.02   0.01   0.07
  67   6    -0.00   0.01   0.02     0.00  -0.03  -0.10    -0.00   0.02   0.07
  68   6     0.00  -0.01   0.02    -0.00   0.03  -0.10     0.00  -0.02   0.07
  69   6    -0.01  -0.02  -0.06     0.01   0.02   0.08     0.01   0.02   0.07
  70   6     0.01   0.02  -0.06    -0.01  -0.02   0.08    -0.01  -0.02   0.07
  71   6    -0.01   0.01   0.03    -0.02   0.03   0.09    -0.01   0.02   0.07
  72   6     0.00  -0.01   0.02     0.02  -0.03   0.09     0.01  -0.02   0.07
  73   7     0.00   0.00   0.00     0.00   0.00   0.00     0.00   0.00   0.00
  74   6     0.00  -0.00   0.00    -0.00   0.00   0.00    -0.00   0.00   0.00
  75   6     0.00   0.00   0.00    -0.00  -0.00  -0.00    -0.00  -0.00   0.00
  76   7     0.00  -0.00   0.00    -0.00   0.00  -0.00     0.00  -0.00   0.00
  77   6    -0.00  -0.00  -0.00    -0.00   0.00   0.00    -0.00  -0.00  -0.00
  78   7    -0.00  -0.00   0.00    -0.00  -0.00   0.00    -0.00  -0.00   0.00
  79   6     0.00   0.00  -0.00     0.00  -0.00  -0.00     0.00   0.00  -0.00
  80   7    -0.00   0.00   0.00     0.00  -0.00  -0.00    -0.00   0.00   0.00
  81   8     0.00   0.00   0.00    -0.00   0.00  -0.00     0.00   0.00   0.00
  82   8    -0.00  -0.00   0.00     0.00  -0.00   0.00    -0.00  -0.00   0.00
  83   6     0.03  -0.00   0.09     0.01  -0.00   0.04     0.02  -0.00   0.06
  84   6    -0.03   0.00   0.09    -0.01   0.00   0.04    -0.02   0.00   0.07
  85   1     0.00  -0.00   0.00     0.00  -0.00   0.00     0.00  -0.00  -0.00
  86   1     0.00   0.00   0.00     0.00   0.00  -0.00     0.00   0.00  -0.00
  87   1     0.00   0.00   0.00     0.00   0.00  -0.00     0.00   0.00  -0.00
  88   1    -0.00  -0.00   0.00     0.00   0.00  -0.00    -0.00   0.00  -0.00
  89   1    -0.00  -0.00  -0.00    -0.00  -0.00   0.00    -0.00   0.00  -0.00
  90   1     0.00   0.00  -0.00     0.00   0.00   0.00     0.00   0.00  -0.00
  91   1    -0.00   0.00  -0.00     0.00  -0.00  -0.00     0.00  -0.00  -0.00
  92   1     0.00  -0.00  -0.00     0.00  -0.00  -0.00     0.00  -0.00  -0.00
  93   1    -0.00  -0.00   0.00    -0.00   0.00  -0.00    -0.00  -0.00  -0.00
  94   1     0.00  -0.00  -0.00     0.00  -0.00  -0.00     0.00  -0.00  -0.00
  95   1     0.01   0.01   0.01    -0.01  -0.01  -0.00     0.01   0.01   0.00
  96   1     0.06   0.06  -0.30    -0.03  -0.03   0.14     0.05   0.05  -0.25
  97   1    -0.09  -0.03   0.35     0.00   0.00  -0.02     0.06   0.02  -0.25
  98   1    -0.02  -0.01  -0.01     0.00   0.00   0.00     0.01   0.00   0.00
  99   1    -0.06  -0.06  -0.30     0.03   0.03   0.15    -0.04  -0.05  -0.23
 100   1    -0.01  -0.01   0.01     0.01   0.01  -0.00    -0.01  -0.01   0.00
 101   1     0.09   0.03   0.36    -0.00  -0.00  -0.00    -0.06  -0.02  -0.24
 102   1     0.02   0.01  -0.01    -0.00   0.00   0.00    -0.01  -0.00   0.00
 103   1     0.00  -0.00   0.00     0.00  -0.00   0.00     0.00  -0.00  -0.00
 104   1     0.00  -0.00  -0.00     0.00  -0.00   0.00    -0.00   0.00  -0.00
 105   1     0.05  -0.03   0.21     0.06  -0.04   0.27    -0.05   0.03  -0.23
 106   1     0.01  -0.01  -0.00     0.01  -0.01  -0.00    -0.01   0.01   0.00
 107   1    -0.05   0.03   0.21    -0.06   0.04   0.26     0.06  -0.04  -0.26
 108   1    -0.01   0.01  -0.00    -0.01   0.01  -0.00     0.01  -0.01   0.00
 109   1     0.00  -0.02  -0.08    -0.01   0.10   0.36     0.01  -0.07  -0.25
 110   1     0.00  -0.00   0.00    -0.00   0.02  -0.01     0.00  -0.01   0.00
 111   1    -0.00   0.02  -0.07     0.01  -0.10   0.36    -0.01   0.07  -0.26
 112   1    -0.00   0.00   0.00     0.00  -0.02  -0.01    -0.00   0.01   0.00
 113   1     0.02   0.06   0.22    -0.02  -0.07  -0.28    -0.02  -0.07  -0.26
 114   1     0.00   0.01  -0.00    -0.00  -0.01   0.01    -0.00  -0.01   0.00
 115   1    -0.02  -0.06   0.23     0.02   0.07  -0.28     0.02   0.07  -0.26
 116   1    -0.00  -0.01  -0.00     0.00   0.01   0.01     0.00   0.01   0.00
 117   1     0.02  -0.02  -0.11     0.05  -0.08  -0.33     0.04  -0.06  -0.25
 118   1     0.00  -0.00   0.00     0.01  -0.01   0.01     0.01  -0.01   0.00
 119   1    -0.00   0.00   0.00    -0.01   0.01   0.01    -0.01   0.01   0.00
 120   1    -0.01   0.02  -0.09    -0.05   0.07  -0.32    -0.04   0.06  -0.25
 121   1    -0.00  -0.00  -0.00     0.00   0.00  -0.00     0.00   0.00  -0.00
 122   1     0.00  -0.00  -0.00     0.00   0.00   0.00     0.00   0.00  -0.00
 123   1    -0.09   0.01  -0.33    -0.04   0.00  -0.15    -0.06   0.01  -0.24
 124   1    -0.02   0.00   0.01    -0.01   0.00   0.00    -0.01   0.00   0.00
 125   1     0.02  -0.00   0.01     0.01  -0.00   0.00     0.01  -0.00   0.00
 126   1     0.09  -0.01  -0.33     0.04  -0.00  -0.16     0.07  -0.01  -0.25
                    370                    371                    372
                        a                      a                      a 
 Frequencies --  2925.2206              2925.2331              2925.6102
 Red. masses --     1.7707                 1.7705                 1.7706
 Frc consts  --     0.0000                 0.0000                 0.0000
 IR Inten    --     1.0451                 1.0636                 0.0002
 Raman Activ --     0.0000                 0.0000                 0.0000
 Depolar     --     0.0000                 0.0000                 0.0000
 Atom AN      X      Y      Z        X      Y      Z        X      Y      Z
   1   7     0.00   0.00   0.00    -0.00  -0.00  -0.00    -0.00  -0.00  -0.00
   2   6     0.00  -0.00  -0.00    -0.00   0.00   0.00    -0.00   0.00   0.00
   3   6     0.00   0.00   0.00     0.00   0.00   0.00    -0.00  -0.00  -0.00
   4   7     0.00  -0.00   0.00     0.00  -0.00   0.00    -0.00   0.00  -0.00
   5   6    -0.00  -0.00  -0.00     0.00  -0.00   0.00     0.00  -0.00   0.00
   6   7     0.00   0.00  -0.00    -0.00  -0.00   0.00    -0.00  -0.00   0.00
   7   6    -0.00  -0.00   0.00     0.00  -0.00  -0.00     0.00  -0.00  -0.00
   8   7     0.00  -0.00  -0.00     0.00  -0.00  -0.00    -0.00   0.00   0.00
   9   8     0.00  -0.00   0.00    -0.00  -0.00  -0.00    -0.00   0.00  -0.00
  10   8     0.00  -0.00  -0.00    -0.00  -0.00   0.00    -0.00   0.00   0.00
  11   7     0.00   0.00   0.00     0.00   0.00   0.00    -0.00  -0.00  -0.00
  12   6     0.00  -0.00   0.00     0.00  -0.00   0.00    -0.00   0.00  -0.00
  13   6    -0.00   0.00   0.00    -0.00   0.00   0.00     0.00  -0.00  -0.00
  14   7     0.00   0.00   0.00     0.00   0.00   0.00    -0.00  -0.00  -0.00
  15   6    -0.00  -0.00  -0.00     0.00  -0.00  -0.00     0.00   0.00   0.00
  16   7     0.00   0.00  -0.00     0.00   0.00  -0.00    -0.00  -0.00   0.00
  17   6    -0.00  -0.00   0.00     0.00  -0.00   0.00     0.00   0.00  -0.00
  18   7     0.00   0.00  -0.00     0.00   0.00  -0.00    -0.00  -0.00   0.00
  19   8     0.00   0.00   0.00     0.00  -0.00   0.00    -0.00  -0.00  -0.00
  20   8     0.00   0.00  -0.00     0.00  -0.00  -0.00    -0.00  -0.00   0.00
  21   7     0.00   0.00  -0.00     0.00   0.00  -0.00     0.00   0.00  -0.00
  22   6    -0.00   0.00   0.00    -0.00   0.00  -0.00    -0.00   0.00  -0.00
  23   6     0.00   0.00   0.00     0.00   0.00  -0.00     0.00   0.00  -0.00
  24   7    -0.00   0.00  -0.00    -0.00   0.00  -0.00    -0.00   0.00  -0.00
  25   6    -0.00  -0.00   0.00     0.00  -0.00   0.00    -0.00  -0.00   0.00
  26   7     0.00   0.00   0.00     0.00   0.00   0.00     0.00   0.00   0.00
  27   6    -0.00  -0.00  -0.00     0.00  -0.00  -0.00    -0.00  -0.00  -0.00
  28   7    -0.00   0.00   0.00    -0.00   0.00   0.00    -0.00   0.00   0.00
  29   8    -0.00   0.00  -0.00     0.00   0.00  -0.00     0.00   0.00  -0.00
  30   8    -0.00   0.00   0.00     0.00   0.00   0.00     0.00   0.00   0.00
  31   7     0.00  -0.00  -0.00    -0.00   0.00   0.00     0.00  -0.00  -0.00
  32   6     0.00   0.00   0.00    -0.00  -0.00  -0.00     0.00   0.00   0.00
  33   6    -0.00  -0.00   0.00     0.00   0.00  -0.00    -0.00  -0.00   0.00
  34   7     0.00   0.00  -0.00    -0.00   0.00   0.00     0.00   0.00  -0.00
  35   6    -0.00  -0.00   0.00     0.00  -0.00  -0.00    -0.00   0.00   0.00
  36   7     0.00  -0.00   0.00    -0.00   0.00  -0.00     0.00  -0.00   0.00
  37   6    -0.00  -0.00  -0.00     0.00  -0.00   0.00    -0.00   0.00  -0.00
  38   7     0.00   0.00   0.00    -0.00   0.00  -0.00     0.00   0.00   0.00
  39   8     0.00  -0.00  -0.00    -0.00  -0.00   0.00     0.00  -0.00  -0.00
  40   8     0.00  -0.00   0.00    -0.00  -0.00  -0.00     0.00  -0.00   0.00
  41   7    -0.00   0.00   0.00    -0.00   0.00   0.00     0.00  -0.00  -0.00
  42   6     0.00   0.00   0.00     0.00   0.00   0.00    -0.00  -0.00  -0.00
  43   6     0.00  -0.00   0.00    -0.00   0.00  -0.00     0.00  -0.00   0.00
  44   7    -0.00  -0.00  -0.00     0.00   0.00   0.00    -0.00  -0.00  -0.00
  45   6    -0.00  -0.00  -0.00     0.00  -0.00  -0.00    -0.00   0.00   0.00
  46   7    -0.00   0.00  -0.00    -0.00   0.00  -0.00     0.00  -0.00   0.00
  47   6    -0.00  -0.00   0.00     0.00  -0.00   0.00    -0.00   0.00  -0.00
  48   7    -0.00  -0.00   0.00     0.00   0.00  -0.00    -0.00  -0.00   0.00
  49   8    -0.00  -0.00   0.00    -0.00   0.00   0.00     0.00  -0.00  -0.00
  50   8    -0.00  -0.00  -0.00    -0.00   0.00  -0.00     0.00  -0.00   0.00
  51   6     0.02   0.02  -0.07     0.01   0.01  -0.05     0.02   0.02  -0.07
  52   6     0.03   0.01  -0.09     0.01   0.00  -0.01    -0.02  -0.01   0.07
  53   6     0.02   0.02   0.08     0.01   0.01   0.05     0.02   0.02   0.07
  54   6     0.03   0.01   0.09     0.01   0.00   0.02    -0.02  -0.01  -0.07
  55   7     0.00  -0.00   0.00     0.00   0.00  -0.00    -0.00   0.00  -0.00
  56   6     0.00   0.00  -0.00    -0.00  -0.00   0.00    -0.00  -0.00   0.00
  57   6     0.00  -0.00   0.00     0.00   0.00  -0.00     0.00   0.00  -0.00
  58   7     0.00   0.00  -0.00    -0.00   0.00  -0.00    -0.00   0.00  -0.00
  59   6    -0.00  -0.00  -0.00     0.00  -0.00   0.00     0.00  -0.00   0.00
  60   7     0.00  -0.00  -0.00     0.00   0.00   0.00    -0.00   0.00   0.00
  61   6    -0.00  -0.00   0.00     0.00  -0.00  -0.00     0.00  -0.00  -0.00
  62   7     0.00   0.00   0.00    -0.00   0.00   0.00    -0.00   0.00   0.00
  63   8    -0.00  -0.00   0.00    -0.00   0.00  -0.00    -0.00   0.00  -0.00
  64   8    -0.00  -0.00  -0.00    -0.00   0.00   0.00    -0.00   0.00   0.00
  65   6     0.02  -0.01   0.07    -0.02   0.01  -0.06    -0.02   0.01  -0.06
  66   6     0.02  -0.01  -0.07    -0.02   0.01   0.06    -0.02   0.01   0.07
  67   6    -0.00   0.00   0.01    -0.00   0.03   0.10    -0.00   0.02   0.07
  68   6    -0.00   0.00  -0.00    -0.00   0.03  -0.10    -0.00   0.02  -0.07
  69   6     0.01   0.02   0.05     0.01   0.03   0.08    -0.01  -0.02  -0.07
  70   6     0.00   0.01  -0.04     0.01   0.03  -0.08    -0.01  -0.02   0.07
  71   6     0.01  -0.01  -0.03    -0.02   0.03   0.08     0.01  -0.02  -0.07
  72   6     0.01  -0.01   0.04    -0.02   0.03  -0.09     0.01  -0.02   0.07
  73   7     0.00   0.00   0.00    -0.00  -0.00  -0.00     0.00   0.00   0.00
  74   6     0.00  -0.00   0.00    -0.00   0.00  -0.00     0.00  -0.00   0.00
  75   6     0.00   0.00   0.00     0.00   0.00  -0.00     0.00   0.00  -0.00
  76   7     0.00  -0.00   0.00     0.00  -0.00   0.00     0.00  -0.00   0.00
  77   6    -0.00  -0.00  -0.00     0.00  -0.00  -0.00    -0.00  -0.00  -0.00
  78   7     0.00   0.00  -0.00    -0.00  -0.00   0.00     0.00   0.00  -0.00
  79   6    -0.00  -0.00   0.00     0.00  -0.00   0.00    -0.00  -0.00   0.00
  80   7     0.00  -0.00  -0.00     0.00  -0.00  -0.00     0.00  -0.00  -0.00
  81   8     0.00   0.00   0.00     0.00  -0.00   0.00     0.00   0.00   0.00
  82   8     0.00   0.00  -0.00     0.00  -0.00  -0.00     0.00   0.00  -0.00
  83   6     0.03  -0.00   0.09    -0.01   0.00  -0.03     0.02  -0.00   0.07
  84   6     0.03  -0.00  -0.09    -0.01   0.00   0.02     0.02  -0.00  -0.06
  85   1    -0.00   0.00   0.00     0.00  -0.00  -0.00     0.00  -0.00  -0.00
  86   1    -0.01  -0.00  -0.00    -0.00  -0.00  -0.00     0.00   0.00   0.00
  87   1    -0.01  -0.00  -0.00    -0.00  -0.00  -0.00     0.00   0.00   0.00
  88   1    -0.00  -0.00  -0.00    -0.00  -0.01  -0.00     0.00   0.00   0.00
  89   1     0.00  -0.00  -0.00    -0.00  -0.01   0.00    -0.00  -0.01   0.00
  90   1    -0.00  -0.00  -0.00    -0.00  -0.00   0.00    -0.00  -0.00   0.00
  91   1    -0.01   0.00  -0.00     0.00  -0.00   0.00    -0.00   0.00  -0.00
  92   1    -0.00   0.00  -0.00     0.00  -0.00   0.00    -0.00   0.00  -0.00
  93   1    -0.00  -0.00  -0.00    -0.00  -0.01  -0.00     0.00   0.01   0.00
  94   1    -0.00   0.00  -0.00     0.00  -0.01   0.00    -0.00   0.00  -0.00
  95   1    -0.01  -0.01  -0.00    -0.01  -0.01  -0.00    -0.01  -0.01  -0.00
  96   1    -0.05  -0.05   0.28    -0.04  -0.04   0.20    -0.05  -0.05   0.25
  97   1    -0.09  -0.03   0.34    -0.01  -0.01   0.06     0.06   0.02  -0.25
  98   1    -0.02  -0.01  -0.01    -0.00  -0.00  -0.00     0.02   0.01   0.00
  99   1    -0.05  -0.06  -0.28    -0.04  -0.04  -0.20    -0.05  -0.05  -0.24
 100   1    -0.01  -0.01   0.01    -0.01  -0.01   0.00    -0.01  -0.01   0.00
 101   1    -0.09  -0.03  -0.35    -0.02  -0.01  -0.06     0.06   0.02   0.25
 102   1    -0.02  -0.01   0.01    -0.00  -0.00   0.00     0.02   0.01  -0.00
 103   1    -0.00   0.00   0.00     0.00  -0.00  -0.00     0.00  -0.00  -0.00
 104   1     0.00   0.00  -0.00     0.00  -0.01   0.00     0.00  -0.00  -0.00
 105   1    -0.06   0.04  -0.26     0.05  -0.03   0.22     0.06  -0.03   0.24
 106   1    -0.01   0.01   0.00     0.01  -0.01  -0.00     0.01  -0.01  -0.00
 107   1    -0.06   0.04   0.26     0.05  -0.03  -0.23     0.06  -0.03  -0.25
 108   1    -0.01   0.01  -0.00     0.01  -0.01   0.00     0.01  -0.01   0.00
 109   1     0.00  -0.01  -0.02     0.01  -0.10  -0.36     0.01  -0.07  -0.25
 110   1     0.00  -0.00   0.00     0.00  -0.02   0.01     0.00  -0.02   0.00
 111   1     0.00  -0.00   0.02     0.01  -0.10   0.36     0.01  -0.07   0.25
 112   1     0.00  -0.00  -0.00     0.00  -0.02  -0.01     0.00  -0.02  -0.00
 113   1    -0.02  -0.05  -0.18    -0.03  -0.08  -0.31     0.02   0.07   0.25
 114   1    -0.00  -0.01   0.00    -0.01  -0.02   0.01     0.01   0.02  -0.00
 115   1    -0.01  -0.04   0.16    -0.03  -0.08   0.31     0.02   0.06  -0.25
 116   1    -0.00  -0.01  -0.00    -0.01  -0.02  -0.01     0.01   0.02   0.00
 117   1    -0.02   0.03   0.13     0.05  -0.07  -0.31    -0.04   0.06   0.25
 118   1    -0.00   0.01  -0.00     0.01  -0.02   0.01    -0.01   0.01  -0.00
 119   1    -0.00   0.01   0.00     0.01  -0.02  -0.01    -0.01   0.01   0.00
 120   1    -0.02   0.03  -0.15     0.05  -0.07   0.32    -0.04   0.06  -0.25
 121   1    -0.01  -0.00  -0.00     0.00   0.00   0.00    -0.01  -0.00  -0.00
 122   1    -0.00  -0.00  -0.00    -0.00  -0.00   0.00    -0.00  -0.00   0.00
 123   1    -0.09   0.01  -0.35     0.03  -0.00   0.10    -0.07   0.01  -0.25
 124   1    -0.02   0.00   0.01     0.01  -0.00  -0.00    -0.02   0.00   0.00
 125   1    -0.02   0.00  -0.01     0.01  -0.00   0.00    -0.02   0.00  -0.00
 126   1    -0.09   0.01   0.33     0.02  -0.00  -0.09    -0.06   0.01   0.24
