      -----------------------------------------------------------      
     |                   =====================                   |     
     |                           x T B                           |     
     |                   =====================                   |     
     |                         S. Grimme                         |     
     |          Mulliken Center for Theoretical Chemistry        |     
     |                    University of Bonn                     |     
      -----------------------------------------------------------      

   * xtb version 6.6.0 (2ccbbd7) compiled by 'conda@6fe65c42fc39' on 2023-02-10

   xtb is free software: you can redistribute it and/or modify it under
   the terms of the GNU Lesser General Public License as published by
   the Free Software Foundation, either version 3 of the License, or
   (at your option) any later version.
   
   xtb is distributed in the hope that it will be useful,
   but WITHOUT ANY WARRANTY; without even the implied warranty of
   MERCHANTABILITY or FITNESS FOR A PARTICULAR PURPOSE.  See the
   GNU Lesser General Public License for more details.
   
   Cite this work as:
   * C. Bannwarth, E. Caldeweyher, S. Ehlert, A. Hansen, P. Pracht,
     J. Seibert, S. Spicher, S. Grimme, WIREs Comput. Mol. Sci., 2020, 11,
     e01493. DOI: 10.1002/wcms.1493
   
   for GFN2-xTB:
   * C. Bannwarth, S. Ehlert and S. Grimme., J. Chem. Theory Comput., 2019,
     15, 1652-1671. DOI: 10.1021/acs.jctc.8b01176
   for GFN1-xTB:
   * S. Grimme, C. Bannwarth, P. Shushkov, J. Chem. Theory Comput., 2017,
     13, 1989-2009. DOI: 10.1021/acs.jctc.7b00118
   for GFN0-xTB:
   * P. Pracht, E. Caldeweyher, S. Ehlert, S. Grimme, ChemRxiv, 2019, preprint.
     DOI: 10.26434/chemrxiv.8326202.v1
   for GFN-FF:
   * S. Spicher and S. Grimme, Angew. Chem. Int. Ed., 2020, 59, 15665-15673.
     DOI: 10.1002/anie.202004239
   
   for ALPB and GBSA implicit solvation:
   * S. Ehlert, M. Stahn, S. Spicher, S. Grimme, J. Chem. Theory Comput.,
     2021, 17, 4250-4261. DOI: 10.1021/acs.jctc.1c00471
   
   for DFT-D4:
   * E. Caldeweyher, C. Bannwarth and S. Grimme, J. Chem. Phys., 2017,
     147, 034112. DOI: 10.1063/1.4993215
   * E. Caldeweyher, S. Ehlert, A. Hansen, H. Neugebauer, S. Spicher,
     C. Bannwarth and S. Grimme, J. Chem. Phys., 2019, 150, 154122.
     DOI: 10.1063/1.5090222
   * E. Caldeweyher, J.-M. Mewes, S. Ehlert and S. Grimme, Phys. Chem. Chem. Phys.
     2020, 22, 8499-8512. DOI: 10.1039/D0CP00502A
   
   for sTDA-xTB:
   * S. Grimme and C. Bannwarth, J. Chem. Phys., 2016, 145, 054103.
     DOI: 10.1063/1.4959605
   
   in the mass-spec context:
   * V. Asgeirsson, C. Bauer and S. Grimme, Chem. Sci., 2017, 8, 4879.
     DOI: 10.1039/c7sc00601b
   * J. Koopman and S. Grimme, ACS Omega 2019, 4, 12, 15120-15133.
     DOI: 10.1021/acsomega.9b02011
   
   for metadynamics refer to:
   * S. Grimme, J. Chem. Theory Comput., 2019, 155, 2847-2862
     DOI: 10.1021/acs.jctc.9b00143
   
   for SPH calculations refer to:
   * S. Spicher and S. Grimme, J. Chem. Theory Comput., 2021, 17, 1701-1714
     DOI: 10.1021/acs.jctc.0c01306
   
   with help from (in alphabetical order)
   P. Atkinson, C. Bannwarth, F. Bohle, G. Brandenburg, E. Caldeweyher
   M. Checinski, S. Dohm, S. Ehlert, S. Ehrlich, I. Gerasimov, C. Hölzer
   A. Katbashev, J. Koopman, C. Lavigne, S. Lehtola, F. März, M. Müller,
   F. Musil, H. Neugebauer, J. Pisarek, C. Plett, P. Pracht, F. Pultar,
   J. Seibert, P. Shushkov, S. Spicher, M. Stahn, M. Steiner, T. Strunk,
   J. Stückrath, T. Rose, and J. Unsleber
   
 * started run on 2023/06/23 at 09:16:45.879     

           -------------------------------------------------
          |                Calculation Setup                |
           -------------------------------------------------

          program call               : xtb /home/spine/DProjects/DhydroEn/data/DCB7/Dhess/hess.out_guest.pdb --hess --alpb water
          coordinate file            : /home/spine/DProjects/DhydroEn/data/DCB7/Dhess/hess.out_guest.pdb
          omp threads                :                     8

   ID    Z sym.   atoms
    1    6  C     1-20
    2    1  H     21-42

           -------------------------------------------------
          |                 G F N 2 - x T B                 |
           -------------------------------------------------

        Reference                      10.1021/acs.jctc.8b01176
      * Hamiltonian:
        H0-scaling (s, p, d)           1.850000    2.230000    2.230000
        zeta-weighting                 0.500000
      * Dispersion:
        s8                             2.700000
        a1                             0.520000
        a2                             5.000000
        s9                             5.000000
      * Repulsion:
        kExp                           1.500000    1.000000
        rExp                           1.000000
      * Coulomb:
        alpha                          2.000000
        third order                    shell-resolved
        anisotropic                    true
        a3                             3.000000
        a5                             4.000000
        cn-shift                       1.200000
        cn-exp                         4.000000
        max-rad                        5.000000

      * Solvation model:               ALPB
        Solvent                        water
        Parameter file                 internal GFN2-xTB/ALPB
        Dielectric constant                8.0200E+01
        Reference state                gsolv [1 M gas/solution]
        Free energy shift                  1.0808E-03 Eh       6.7819E-01 kcal/mol
        Temperature                        2.9815E+02 K
        Density                            1.0000E+00 kg/L
        Solvent mass                       1.8000E+01 g/mol
        Interaction kernel             P16
        Born radius scaling (c1)           1.4744E+00
        Born radii integrator          GBOBC
        Born offset                        0.0000E+00 a0       0.0000E+00 AA
        H-bond correction              true
        Ion screening                  false
        Surface tension                    1.0000E-05 Eh       1.5569E+01 dyn/cm
        Grid points                               230 per atom

          ...................................................
          :                      SETUP                      :
          :.................................................:
          :  # basis functions                 102          :
          :  # atomic orbitals                 102          :
          :  # shells                           62          :
          :  # electrons                       102          :
          :  max. iterations                   250          :
          :  Hamiltonian                  GFN2-xTB          :
          :  restarted?                      false          :
          :  GBSA solvation                   true          :
          :  PC potential                    false          :
          :  electronic temp.          300.0000000     K    :
          :  accuracy                    1.0000000          :
          :  -> integral cutoff          0.2500000E+02      :
          :  -> integral neglect         0.1000000E-07      :
          :  -> SCF convergence          0.1000000E-05 Eh   :
          :  -> wf. convergence          0.1000000E-03 e    :
          :  Broyden damping             0.4000000          :
          ...................................................

 iter      E             dE          RMSdq      gap      omega  full diag
   1    -54.9493556 -0.549494E+02  0.399E+00    3.44       0.0  T
   2    -54.9884341 -0.390785E-01  0.239E+00    3.34       1.0  T
   3    -54.9605455  0.278886E-01  0.103E+00    3.36       1.0  T
   4    -54.9873620 -0.268166E-01  0.431E-01    3.39       1.0  T
   5    -54.9939694 -0.660740E-02  0.929E-02    3.37       1.0  T
   6    -54.9940850 -0.115582E-03  0.449E-02    3.38       1.0  T
   7    -54.9941074 -0.223604E-04  0.179E-02    3.38       1.0  T
   8    -54.9941123 -0.495387E-05  0.802E-03    3.38       1.9  T
   9    -54.9941128 -0.435205E-06  0.237E-03    3.38       6.5  T
  10    -54.9941129 -0.135590E-06  0.803E-04    3.38      19.2  T
  11    -54.9941129 -0.199405E-08  0.467E-04    3.38      33.0  T

   *** convergence criteria satisfied after 11 iterations ***

         #    Occupation            Energy/Eh            Energy/eV
      -------------------------------------------------------------
         1        2.0000           -0.6459496             -17.5772
       ...           ...                  ...                  ...
        45        2.0000           -0.4195431             -11.4163
        46        2.0000           -0.4050485             -11.0219
        47        2.0000           -0.4024249             -10.9505
        48        2.0000           -0.4003479             -10.8940
        49        2.0000           -0.3881180             -10.5612
        50        2.0000           -0.3861308             -10.5072
        51        2.0000           -0.3750914             -10.2068 (HOMO)
        52                         -0.2509935              -6.8299 (LUMO)
        53                         -0.2321383              -6.3168
        54                         -0.1796652              -4.8889
        55                         -0.1493159              -4.0631
        56                         -0.1192832              -3.2459
       ...                                ...                  ...
       102                          1.4263318              38.8125
      -------------------------------------------------------------
                  HL-Gap            0.1240979 Eh            3.3769 eV
             Fermi-level           -0.3130425 Eh           -8.5183 eV

 SCC (total)                   0 d,  0 h,  0 min,  0.106 sec
 SCC setup                      ...        0 min,  0.003 sec (  2.397%)
 Dispersion                     ...        0 min,  0.003 sec (  2.598%)
 classical contributions        ...        0 min,  0.000 sec (  0.091%)
 integral evaluation            ...        0 min,  0.012 sec ( 11.232%)
 iterations                     ...        0 min,  0.073 sec ( 68.462%)
 molecular gradient             ...        0 min,  0.016 sec ( 14.677%)
 printout                       ...        0 min,  0.001 sec (  0.496%)

         :::::::::::::::::::::::::::::::::::::::::::::::::::::
         ::                     SUMMARY                     ::
         :::::::::::::::::::::::::::::::::::::::::::::::::::::
         :: total energy             -54.026821191623 Eh    ::
         :: total w/o Gsasa/hb       -54.024482414959 Eh    ::
         :: gradient norm              0.002783132148 Eh/a0 ::
         :: HOMO-LUMO gap              3.376874441279 eV    ::
         ::.................................................::
         :: SCC energy               -54.994112911066 Eh    ::
         :: -> isotropic ES            0.005710286225 Eh    ::
         :: -> anisotropic ES          0.009051214666 Eh    ::
         :: -> anisotropic XC          0.033666504977 Eh    ::
         :: -> dispersion             -0.043598656937 Eh    ::
         :: -> Gsolv                  -0.002982622759 Eh    ::
         ::    -> Gelec               -0.000643846094 Eh    ::
         ::    -> Gsasa               -0.002721214056 Eh    ::
         ::    -> Ghb                 -0.000698322306 Eh    ::
         ::    -> Gshift               0.001080759698 Eh    ::
         :: repulsion energy           0.967339540644 Eh    ::
         :: add. restraining           0.000000000000 Eh    ::
         :: total charge               0.000000000000 e     ::
         :::::::::::::::::::::::::::::::::::::::::::::::::::::

           ------------------------------------------------- 
          |                Numerical Hessian                |
           ------------------------------------------------- 
step length          :   0.00500
SCC accuracy         :   0.30000
Hessian scale factor :   1.00000
frozen atoms in %    :   0.00000    0
RMS gradient         :   0.00278 !! INCOMPLETELY OPTIMIZED GEOMETRY !!
estimated CPU  time      0.71 min
estimated wall time      0.10 min

writing file <hessian>.

 projected vibrational frequencies (cm⁻¹)
eigval :       -0.00    -0.00     0.00     0.00     0.00     0.00
eigval :        8.46    31.54    36.70    44.44    94.60   112.12
eigval :      184.50   206.16   235.76   275.06   288.27   301.92
eigval :      309.86   388.04   388.44   395.20   406.25   415.40
eigval :      415.91   436.93   467.81   471.46   477.41   507.12
eigval :      537.32   556.44   639.60   645.42   645.58   691.46
eigval :      692.82   758.83   789.57   833.51   875.11   877.04
eigval :      877.38   881.27   891.10   895.69   899.06   901.04
eigval :      901.29   924.82   953.93   987.26   992.62   993.17
eigval :      994.39   994.96   995.59  1013.15  1027.14  1079.01
eigval :     1080.16  1084.52  1110.97  1112.09  1130.48  1134.19
eigval :     1136.21  1136.48  1158.26  1184.61  1195.99  1196.38
eigval :     1201.33  1254.85  1255.64  1265.68  1293.31  1293.81
eigval :     1294.52  1300.08  1307.28  1324.22  1324.42  1326.10
eigval :     1329.62  1333.55  1347.93  1348.11  1355.20  1355.43
eigval :     1357.26  1405.16  1424.57  1472.98  1477.72  1477.86
eigval :     1491.26  1491.27  1491.76  1511.57  1566.95  1583.53
eigval :     1674.01  2359.49  2906.61  2907.78  2910.36  2954.32
eigval :     2955.79  2956.42  2959.75  2961.09  2961.75  2973.08
eigval :     2975.16  2976.13  2976.46  2977.12  2982.47  3039.84
eigval :     3068.08  3070.47  3093.18  3105.11  3110.25  3128.12
           -------------------------------------------------
          |                Property Printout                |
           -------------------------------------------------

    * Orbital Energies and Occupations

         #    Occupation            Energy/Eh            Energy/eV
      -------------------------------------------------------------
         1        2.0000           -0.6459496             -17.5772
       ...           ...                  ...                  ...
        39        2.0000           -0.4343978             -11.8206
        40        2.0000           -0.4320207             -11.7559
        41        2.0000           -0.4315051             -11.7419
        42        2.0000           -0.4297353             -11.6937
        43        2.0000           -0.4254198             -11.5763
        44        2.0000           -0.4203850             -11.4393
        45        2.0000           -0.4195401             -11.4163
        46        2.0000           -0.4050486             -11.0219
        47        2.0000           -0.4024255             -10.9506
        48        2.0000           -0.4003488             -10.8940
        49        2.0000           -0.3881175             -10.5612
        50        2.0000           -0.3861272             -10.5071
        51        2.0000           -0.3750886             -10.2067 (HOMO)
        52                         -0.2509896              -6.8298 (LUMO)
        53                         -0.2321348              -6.3167
        54                         -0.1796609              -4.8888
        55                         -0.1493136              -4.0630
        56                         -0.1192807              -3.2458
        57                         -0.0530697              -1.4441
        58                          0.0381479               1.0381
        59                          0.0671368               1.8269
        60                          0.0674868               1.8364
        61                          0.0738637               2.0099
        62                          0.0979779               2.6661
       ...                                ...                  ...
       102                          1.4263338              38.8125
      -------------------------------------------------------------
                  HL-Gap            0.1240991 Eh            3.3769 eV
             Fermi-level           -0.3130391 Eh           -8.5182 eV

     #   Z          covCN         q      C6AA      α(0)
     1   6  C       3.913     0.041    19.827     6.329
     2   6  C       3.822    -0.057    21.578     6.610
     3   6  C       3.860    -0.013    20.767     6.481
     4   6  C       3.814    -0.063    21.690     6.629
     5   6  C       3.860    -0.013    20.767     6.481
     6   6  C       3.822    -0.056    21.567     6.609
     7   6  C       3.814    -0.063    21.690     6.629
     8   6  C       3.860    -0.013    20.766     6.481
     9   6  C       3.822    -0.056    21.569     6.609
    10   6  C       3.814    -0.063    21.692     6.629
    11   6  C       1.987    -0.052    32.463     9.201
    12   6  C       1.981    -0.064    32.788     9.247
    13   6  C       2.969     0.034    27.230     8.559
    14   6  C       2.937    -0.040    28.996     8.831
    15   6  C       2.969     0.011    27.757     8.642
    16   6  C       2.923    -0.039    28.973     8.827
    17   6  C       2.916    -0.035    28.878     8.812
    18   6  C       2.927    -0.037    28.926     8.820
    19   6  C       2.896    -0.036    28.885     8.812
    20   6  C       2.837    -0.095    30.379     9.032
    21   1  H       0.924     0.031     2.570     2.507
    22   1  H       0.924     0.031     2.570     2.507
    23   1  H       0.924     0.024     2.677     2.559
    24   1  H       0.924     0.032     2.559     2.502
    25   1  H       0.924     0.030     2.583     2.513
    26   1  H       0.924     0.024     2.672     2.556
    27   1  H       0.924     0.031     2.567     2.506
    28   1  H       0.924     0.031     2.570     2.507
    29   1  H       0.924     0.031     2.578     2.511
    30   1  H       0.924     0.032     2.559     2.502
    31   1  H       0.924     0.024     2.672     2.556
    32   1  H       0.924     0.031     2.568     2.506
    33   1  H       0.924     0.031     2.568     2.506
    34   1  H       0.924     0.032     2.560     2.502
    35   1  H       0.924     0.030     2.580     2.512
    36   1  H       0.926     0.033     2.545     2.495
    37   1  H       0.926     0.037     2.488     2.467
    38   1  H       0.926     0.034     2.537     2.491
    39   1  H       0.926     0.034     2.535     2.490
    40   1  H       0.925     0.037     2.492     2.469
    41   1  H       0.926     0.044     2.398     2.422
    42   1  H       0.926     0.044     2.399     2.422

 Mol. C6AA /au·bohr⁶  :      18312.503561
 Mol. C8AA /au·bohr⁸  :     436890.236393
 Mol. α(0) /au        :        209.276151


Wiberg/Mayer (AO) data.
largest (>0.10) Wiberg bond orders for each atom

 ---------------------------------------------------------------------------
     #   Z sym  total        # sym  WBO       # sym  WBO       # sym  WBO
 ---------------------------------------------------------------------------
     1   6  C   3.991 --    11  C   1.033     2  C   0.967     6  C   0.965
                             9  C   0.964
     2   6  C   3.996 --     3  C   0.996    21  H   0.976    22  H   0.976
                             1  C   0.967
     3   6  C   3.996 --    10  C   0.998     4  C   0.998     2  C   0.996
                            23  H   0.967
     4   6  C   3.998 --     5  C   0.998     3  C   0.998    25  H   0.976
                            24  H   0.976
     5   6  C   3.996 --     4  C   0.998     7  C   0.998     6  C   0.996
                            26  H   0.967
     6   6  C   3.992 --     5  C   0.996    28  H   0.976    27  H   0.976
                             1  C   0.965
     7   6  C   3.998 --     8  C   0.998     5  C   0.998    29  H   0.976
                            30  H   0.976
     8   6  C   3.996 --     7  C   0.998    10  C   0.998     9  C   0.996
                            31  H   0.967
     9   6  C   3.992 --     8  C   0.996    33  H   0.976    32  H   0.976
                             1  C   0.964
    10   6  C   3.998 --     3  C   0.998     8  C   0.998    35  H   0.976
                            34  H   0.976
    11   6  C   3.945 --    12  C   2.734     1  C   1.033
    12   6  C   3.974 --    11  C   2.734    13  C   1.109
    13   6  C   3.989 --    14  C   1.378    18  C   1.358    12  C   1.109
    14   6  C   3.986 --    15  C   1.391    13  C   1.378    36  H   0.968
    15   6  C   3.989 --    14  C   1.391    16  C   1.366    19  C   1.089
    16   6  C   3.963 --    17  C   1.452    15  C   1.366    37  H   0.966
    17   6  C   3.992 --    16  C   1.452    18  C   1.443    38  H   0.970
    18   6  C   3.987 --    17  C   1.443    13  C   1.358    39  H   0.971
    19   6  C   3.990 --    20  C   1.903    15  C   1.089    40  H   0.964
    20   6  C   3.991 --    19  C   1.903    41  H   0.978    42  H   0.972
    21   1  H   0.999 --     2  C   0.976
    22   1  H   0.999 --     2  C   0.976
    23   1  H   0.998 --     3  C   0.967
    24   1  H   0.999 --     4  C   0.976
    25   1  H   0.999 --     4  C   0.976
    26   1  H   0.998 --     5  C   0.967
    27   1  H   0.999 --     6  C   0.976
    28   1  H   0.999 --     6  C   0.976
    29   1  H   0.999 --     7  C   0.976
    30   1  H   0.999 --     7  C   0.976
    31   1  H   0.998 --     8  C   0.967
    32   1  H   0.999 --     9  C   0.976
    33   1  H   0.999 --     9  C   0.976
    34   1  H   0.999 --    10  C   0.976
    35   1  H   0.999 --    10  C   0.976
    36   1  H   0.999 --    14  C   0.968
    37   1  H   0.999 --    16  C   0.966
    38   1  H   0.997 --    17  C   0.970
    39   1  H   0.998 --    18  C   0.971
    40   1  H   0.998 --    19  C   0.964
    41   1  H   0.997 --    20  C   0.978
    42   1  H   0.998 --    20  C   0.972
 ---------------------------------------------------------------------------

Topologies differ in total number of bonds
Writing topology from bond orders to xtbtopo.mol

molecular dipole:
                 x           y           z       tot (Debye)
 q only:       -0.396      -0.139       0.031
   full:       -0.352      -0.121       0.025       0.947
molecular quadrupole (traceless):
                xx          xy          yy          xz          yz          zz
 q only:        3.392       1.068      -0.940       0.238      -1.321      -2.453
  q+dip:        7.544       2.846      -1.037       0.615      -4.918      -6.506
   full:        4.227       1.553      -0.687       0.322      -2.558      -3.539

           -------------------------------------------------
          |               Frequency Printout                |
           -------------------------------------------------
 projected vibrational frequencies (cm⁻¹)
eigval :       -0.00    -0.00     0.00     0.00     0.00     0.00
eigval :        8.46    31.54    36.70    44.44    94.60   112.12
eigval :      184.50   206.16   235.76   275.06   288.27   301.92
eigval :      309.86   388.04   388.44   395.20   406.25   415.40
eigval :      415.91   436.93   467.81   471.46   477.41   507.12
eigval :      537.32   556.44   639.60   645.42   645.58   691.46
eigval :      692.82   758.83   789.57   833.51   875.11   877.04
eigval :      877.38   881.27   891.10   895.69   899.06   901.04
eigval :      901.29   924.82   953.93   987.26   992.62   993.17
eigval :      994.39   994.96   995.59  1013.15  1027.14  1079.01
eigval :     1080.16  1084.52  1110.97  1112.09  1130.48  1134.19
eigval :     1136.21  1136.48  1158.26  1184.61  1195.99  1196.38
eigval :     1201.33  1254.85  1255.64  1265.68  1293.31  1293.81
eigval :     1294.52  1300.08  1307.28  1324.22  1324.42  1326.10
eigval :     1329.62  1333.55  1347.93  1348.11  1355.20  1355.43
eigval :     1357.26  1405.16  1424.57  1472.98  1477.72  1477.86
eigval :     1491.26  1491.27  1491.76  1511.57  1566.95  1583.53
eigval :     1674.01  2359.49  2906.61  2907.78  2910.36  2954.32
eigval :     2955.79  2956.42  2959.75  2961.09  2961.75  2973.08
eigval :     2975.16  2976.13  2976.46  2977.12  2982.47  3039.84
eigval :     3068.08  3070.47  3093.18  3105.11  3110.25  3128.12
 reduced masses (amu)
   1: 10.57   2: 10.87   3: 10.72   4: 10.89   5: 10.57   6: 10.82   7:  9.87   8: 10.28
   9:  9.62  10:  8.52  11: 10.33  12: 10.27  13:  7.98  14: 10.77  15:  9.63  16:  9.06
  17:  8.08  18:  7.06  19:  9.59  20: 10.43  21: 10.43  22:  8.63  23: 10.30  24:  7.96
  25:  7.79  26:  7.50  27: 10.12  28:  9.54  29: 10.24  30:  9.20  31:  9.79  32:  9.76
  33:  9.74  34:  9.96  35:  9.95  36: 10.57  37:  6.99  38: 10.40  39:  5.16  40: 10.07
  41:  3.82  42:  8.29  43:  8.43  44:  3.97  45:  3.87  46:  9.57  47:  4.99  48:  5.22
Molecule has no symmetry elements
It seems to be the C1 point group
  49:  5.22  50:  3.47  51:  9.80  52: 10.98  53:  6.92  54:  6.96  55:  7.25  56:  7.80
  57:  7.13  58:  1.96  59:  5.35  60:  5.41  61:  5.39  62:  5.04  63:  1.08  64:  7.19
  65:  4.55  66:  5.46  67:  4.23  68:  4.21  69:  1.01  70:  2.89  71:  1.85  72:  1.85
  73:  4.87  74:  5.39  75:  5.41  76:  4.31  77:  7.58  78:  7.59  79:  7.71  80:  8.31
  81:  7.21  82:  5.12  83:  5.15  84:  7.61  85:  8.65  86:  3.89  87:  5.42  88:  5.41
  89:  5.58  90:  5.60  91:  6.29  92:  5.28  93:  7.34  94:  9.52  95:  1.97  96:  1.97
  97:  1.99  98:  1.99  99:  2.05 100:  1.95 101: 11.41 102: 11.49 103: 11.13 104: 12.01
 105:  1.76 106:  1.76 107:  1.74 108:  1.99 109:  1.98 110:  1.99 111:  1.96 112:  1.95
 113:  1.96 114:  1.49 115:  1.50 116:  1.49 117:  1.51 118:  1.49 119:  1.50 120:  1.80
 121:  1.79 122:  1.82 123:  1.84 124:  1.77 125:  1.62 126:  2.07
 IR intensities (km·mol⁻¹)
   1:  0.15   2:  0.02   3:  0.01   4:  0.06   5:  0.02   6:  0.00   7:  0.01   8:  0.09
   9:  0.14  10:  0.02  11:  0.00  12:  0.16  13:  0.33  14:  0.03  15:  0.67  16:  0.13
  17:  0.14  18:  0.01  19:  0.04  20:  0.02  21:  0.06  22:  0.75  23:  0.48  24:  0.44
  25:  0.41  26:  0.58  27:  1.22  28:  0.06  29:  0.39  30:  0.16  31:  7.96  32:  0.61
  33:  0.39  34:  0.05  35:  0.01  36:  0.04  37:  2.77  38:  0.03  39: 19.51  40:  1.49
  41:  1.48  42:  0.18  43:  0.10  44:  3.83  45: 11.27  46:  3.63  47:  0.01  48:  0.02
  49:  0.01  50:  0.08  51:  2.97  52:  0.73  53:  1.80  54:  2.50  55:  1.52  56:  6.37
  57:  0.35  58: 16.59  59:  5.29  60:  0.11  61:  0.12  62:  0.00  63:  0.01  64:  1.36
  65:  0.72  66:  3.89  67:  3.29  68:  3.18  69:  0.00  70:  0.28  71:  0.87  72:  0.99
  73:  0.03  74:  6.02  75:  5.56  76:  2.30  77:  1.42  78:  1.47  79:  0.13  80:  8.05
  81:  0.54  82:  3.33  83:  4.13  84: 43.40  85:  4.16  86:  0.00  87:  4.23  88:  5.20
  89:  8.50  90:  8.55  91:  3.28  92:  1.43  93:  5.90  94:  1.24  95:  0.19  96:  0.09
  97:  0.16  98:  0.10  99:  2.17 100:  0.77 101:  1.32 102: 17.51 103:  3.08 104: 91.55
 105:178.51 106:158.33 107: 95.25 108:  2.60 109: 12.18 110: 28.78 111:204.92 112:187.25
 113:195.75 114: 74.84 115: 10.66 116: 99.05 117:226.57 118:239.34 119: 72.39 120: 69.98
 121: 71.48 122: 68.27 123: 88.24 124: 16.40 125:103.04 126: 81.77
 Raman intensities (amu)
   1:  0.00   2:  0.00   3:  0.00   4:  0.00   5:  0.00   6:  0.00   7:  0.00   8:  0.00
   9:  0.00  10:  0.00  11:  0.00  12:  0.00  13:  0.00  14:  0.00  15:  0.00  16:  0.00
  17:  0.00  18:  0.00  19:  0.00  20:  0.00  21:  0.00  22:  0.00  23:  0.00  24:  0.00
  25:  0.00  26:  0.00  27:  0.00  28:  0.00  29:  0.00  30:  0.00  31:  0.00  32:  0.00
  33:  0.00  34:  0.00  35:  0.00  36:  0.00  37:  0.00  38:  0.00  39:  0.00  40:  0.00
  41:  0.00  42:  0.00  43:  0.00  44:  0.00  45:  0.00  46:  0.00  47:  0.00  48:  0.00
  49:  0.00  50:  0.00  51:  0.00  52:  0.00  53:  0.00  54:  0.00  55:  0.00  56:  0.00
  57:  0.00  58:  0.00  59:  0.00  60:  0.00  61:  0.00  62:  0.00  63:  0.00  64:  0.00
  65:  0.00  66:  0.00  67:  0.00  68:  0.00  69:  0.00  70:  0.00  71:  0.00  72:  0.00
  73:  0.00  74:  0.00  75:  0.00  76:  0.00  77:  0.00  78:  0.00  79:  0.00  80:  0.00
  81:  0.00  82:  0.00  83:  0.00  84:  0.00  85:  0.00  86:  0.00  87:  0.00  88:  0.00
  89:  0.00  90:  0.00  91:  0.00  92:  0.00  93:  0.00  94:  0.00  95:  0.00  96:  0.00
  97:  0.00  98:  0.00  99:  0.00 100:  0.00 101:  0.00 102:  0.00 103:  0.00 104:  0.00
 105:  0.00 106:  0.00 107:  0.00 108:  0.00 109:  0.00 110:  0.00 111:  0.00 112:  0.00
 113:  0.00 114:  0.00 115:  0.00 116:  0.00 117:  0.00 118:  0.00 119:  0.00 120:  0.00
 121:  0.00 122:  0.00 123:  0.00 124:  0.00 125:  0.00 126:  0.00
 output can be read by thermo (or use thermo option).
 writing <g98.out> molden fake output.
 recommended (thermochemical) frequency scaling factor: 1.0
           -------------------------------------------------
          |             Thermodynamic Functions             |
           -------------------------------------------------

c1  symmetry found (for desy threshold:  0.10E+00) used in thermo

          ...................................................
          :                      SETUP                      :
          :.................................................:
          :  # frequencies                         120      :
          :  # imaginary freq.                       0      :
          :  linear?                             false      :
          :  only rotor calc.                    false      :
          :  symmetry                               c1      :
          :  rotational number                       1      :
          :  scaling factor                  1.0000000      :
          :  rotor cutoff                   50.0000000 cm⁻¹ :
          :  imag. cutoff                  -20.0000000 cm⁻¹ :
          :.................................................:

    mode    ω/cm⁻¹     T·S(HO)/kcal·mol⁻¹    T·S(FR)/kcal·mol⁻¹   T·S(vib)
   ------------------------------------------------------------------------
       1      8.46    -2.48762 (  0.08%)    -1.58270 ( 99.92%)    -1.58344
       2     31.54    -1.70852 ( 13.66%)    -1.19304 ( 86.34%)    -1.26346
       3     36.70    -1.61891 ( 22.49%)    -1.14814 ( 77.51%)    -1.25402
       4     44.44    -1.50590 ( 38.42%)    -1.09146 ( 61.58%)    -1.25067
       5     94.60    -1.06218 ( 92.76%)    -0.86763 (  7.24%)    -1.04810
       6    112.12    -0.96358 ( 96.20%)    -0.81731 (  3.80%)    -0.95802
       7    184.50    -0.68049 ( 99.46%)    -0.66976 (  0.54%)    -0.68043
       8    206.16    -0.61937 ( 99.66%)    -0.63687 (  0.34%)    -0.61943
       9    235.76    -0.54700 ( 99.80%)    -0.59713 (  0.20%)    -0.54710
      10    275.06    -0.46636 ( 99.89%)    -0.55146 (  0.11%)    -0.46646
      11    288.27    -0.44248 ( 99.91%)    -0.53756 (  0.09%)    -0.44256
   ------------------------------------------------------------------------

   temp. (K)  partition function   enthalpy   heat capacity  entropy
                                   cal/mol     cal/K/mol   cal/K/mol   J/K/mol
 298.15  VIB  0.408E+07             8861.330     60.384     53.300
         ROT  0.686E+07              888.752      2.981     34.263
         INT  0.280E+14             9750.082     63.365     87.563
         TR   0.411E+28             1481.254      4.968     42.574
         TOT                       11231.3364    68.3329   130.1371   544.4938

       T/K    H(0)-H(T)+PV         H(T)/Eh          T*S/Eh         G(T)/Eh
   ------------------------------------------------------------------------
    298.15    0.178983E-01    0.376826E+00    0.618324E-01    0.314994E+00
   ------------------------------------------------------------------------

         :::::::::::::::::::::::::::::::::::::::::::::::::::::
         ::                  THERMODYNAMIC                  ::
         :::::::::::::::::::::::::::::::::::::::::::::::::::::
         :: total free energy         -53.711827456415 Eh   ::
         ::.................................................::
         :: total energy              -54.026821194205 Eh   ::
         :: zero point energy           0.358927820961 Eh   ::
         :: G(RRHO) w/o ZPVE           -0.043934083170 Eh   ::
         :: G(RRHO) contrib.            0.314993737791 Eh   ::
         :::::::::::::::::::::::::::::::::::::::::::::::::::::

           -------------------------------------------------
          | TOTAL ENERGY              -54.026821194205 Eh   |
          | TOTAL ENTHALPY            -53.649995099403 Eh   |
          | TOTAL FREE ENERGY         -53.711827456415 Eh   |
          | GRADIENT NORM               0.002783661868 Eh/α |
          | HOMO-LUMO GAP               3.376907937814 eV   |
           -------------------------------------------------
########################################################################
[WARNING] Runtime exception occurred
-3- hessian_numhess: Hessian on incompletely optimized geometry!
-2- restart_readRestart: Dimension missmatch in restart file.
-1- restart_readRestart: Number of electron missmatch in restart file.
########################################################################

------------------------------------------------------------------------
 * finished run on 2023/06/23 at 09:16:49.195     
------------------------------------------------------------------------
 total:
 * wall-time:     0 d,  0 h,  0 min,  3.316 sec
 *  cpu-time:     0 d,  0 h,  0 min, 25.259 sec
 * ratio c/w:     7.616 speedup
 SCF:
 * wall-time:     0 d,  0 h,  0 min,  0.107 sec
 *  cpu-time:     0 d,  0 h,  0 min,  0.729 sec
 * ratio c/w:     6.823 speedup
 analytical hessian:
 * wall-time:     0 d,  0 h,  0 min,  3.171 sec
 *  cpu-time:     0 d,  0 h,  0 min, 24.429 sec
 * ratio c/w:     7.704 speedup

