      -----------------------------------------------------------      
     |                   =====================                   |     
     |                           x T B                           |     
     |                   =====================                   |     
     |                         S. Grimme                         |     
     |          Mulliken Center for Theoretical Chemistry        |     
     |                    University of Bonn                     |     
      -----------------------------------------------------------      

   * xtb version 6.6.0 (8843059) compiled by 'stahn@majestix' on 2023-02-09

   xtb is free software: you can redistribute it and/or modify it under
   the terms of the GNU Lesser General Public License as published by
   the Free Software Foundation, either version 3 of the License, or
   (at your option) any later version.
   
   xtb is distributed in the hope that it will be useful,
   but WITHOUT ANY WARRANTY; without even the implied warranty of
   MERCHANTABILITY or FITNESS FOR A PARTICULAR PURPOSE.  See the
   GNU Lesser General Public License for more details.
   
   Cite this work as:
   * C. Bannwarth, E. Caldeweyher, S. Ehlert, A. Hansen, P. Pracht,
     J. Seibert, S. Spicher, S. Grimme, WIREs Comput. Mol. Sci., 2020, 11,
     e01493. DOI: 10.1002/wcms.1493
   
   for GFN2-xTB:
   * C. Bannwarth, S. Ehlert and S. Grimme., J. Chem. Theory Comput., 2019,
     15, 1652-1671. DOI: 10.1021/acs.jctc.8b01176
   for GFN1-xTB:
   * S. Grimme, C. Bannwarth, P. Shushkov, J. Chem. Theory Comput., 2017,
     13, 1989-2009. DOI: 10.1021/acs.jctc.7b00118
   for GFN0-xTB:
   * P. Pracht, E. Caldeweyher, S. Ehlert, S. Grimme, ChemRxiv, 2019, preprint.
     DOI: 10.26434/chemrxiv.8326202.v1
   for GFN-FF:
   * S. Spicher and S. Grimme, Angew. Chem. Int. Ed., 2020, 59, 15665-15673.
     DOI: 10.1002/anie.202004239
   
   for ALPB and GBSA implicit solvation:
   * S. Ehlert, M. Stahn, S. Spicher, S. Grimme, J. Chem. Theory Comput.,
     2021, 17, 4250-4261. DOI: 10.1021/acs.jctc.1c00471
   
   for DFT-D4:
   * E. Caldeweyher, C. Bannwarth and S. Grimme, J. Chem. Phys., 2017,
     147, 034112. DOI: 10.1063/1.4993215
   * E. Caldeweyher, S. Ehlert, A. Hansen, H. Neugebauer, S. Spicher,
     C. Bannwarth and S. Grimme, J. Chem. Phys., 2019, 150, 154122.
     DOI: 10.1063/1.5090222
   * E. Caldeweyher, J.-M. Mewes, S. Ehlert and S. Grimme, Phys. Chem. Chem. Phys.
     2020, 22, 8499-8512. DOI: 10.1039/D0CP00502A
   
   for sTDA-xTB:
   * S. Grimme and C. Bannwarth, J. Chem. Phys., 2016, 145, 054103.
     DOI: 10.1063/1.4959605
   
   in the mass-spec context:
   * V. Asgeirsson, C. Bauer and S. Grimme, Chem. Sci., 2017, 8, 4879.
     DOI: 10.1039/c7sc00601b
   * J. Koopman and S. Grimme, ACS Omega 2019, 4, 12, 15120-15133.
     DOI: 10.1021/acsomega.9b02011
   
   for metadynamics refer to:
   * S. Grimme, J. Chem. Theory Comput., 2019, 155, 2847-2862
     DOI: 10.1021/acs.jctc.9b00143
   
   for SPH calculations refer to:
   * S. Spicher and S. Grimme, J. Chem. Theory Comput., 2021, 17, 1701-1714
     DOI: 10.1021/acs.jctc.0c01306
   
   with help from (in alphabetical order)
   P. Atkinson, C. Bannwarth, F. Bohle, G. Brandenburg, E. Caldeweyher
   M. Checinski, S. Dohm, S. Ehlert, S. Ehrlich, I. Gerasimov, C. Hölzer
   A. Katbashev, J. Koopman, C. Lavigne, S. Lehtola, F. März, M. Müller,
   F. Musil, H. Neugebauer, J. Pisarek, C. Plett, P. Pracht, F. Pultar,
   J. Seibert, P. Shushkov, S. Spicher, M. Stahn, M. Steiner, T. Strunk,
   J. Stückrath, T. Rose, and J. Unsleber
   
 * started run on 2023/06/23 at 06:45:24.091     

           -------------------------------------------------
          |                Calculation Setup                |
           -------------------------------------------------

          program call               : xtb xtbopt.pdb --ohess tight
          coordinate file            : xtbopt.pdb
          omp threads                :                     8

   ID    Z sym.   atoms
    1    7  N     1, 4, 6, 8, 11, 14, 16, 18, 21, 24, 26, 28, 31, 34, 36, 38,
                  41, 44, 46, 48, 55, 58, 60, 62, 73, 76, 78, 80
    2    6  C     2, 3, 5, 7, 12, 13, 15, 17, 22, 23, 25, 27, 32, 33, 35, 37,
                  42, 43, 45, 47, 51-54, 56, 57, 59, 61, 65-72, 74, 75, 77,
                  79, 83, 84
    3    8  O     9, 10, 19, 20, 29, 30, 39, 40, 49, 50, 63, 64, 81, 82
    4    1  H     85-126

           -------------------------------------------------
          |                 G F N 2 - x T B                 |
           -------------------------------------------------

        Reference                      10.1021/acs.jctc.8b01176
      * Hamiltonian:
        H0-scaling (s, p, d)           1.850000    2.230000    2.230000
        zeta-weighting                 0.500000
      * Dispersion:
        s8                             2.700000
        a1                             0.520000
        a2                             5.000000
        s9                             5.000000
      * Repulsion:
        kExp                           1.500000    1.000000
        rExp                           1.000000
      * Coulomb:
        alpha                          2.000000
        third order                    shell-resolved
        anisotropic                    true
        a3                             3.000000
        a5                             4.000000
        cn-shift                       1.200000
        cn-exp                         4.000000
        max-rad                        5.000000


          ...................................................
          :                      SETUP                      :
          :.................................................:
          :  # basis functions                 378          :
          :  # atomic orbitals                 378          :
          :  # shells                          210          :
          :  # electrons                       434          :
          :  max. iterations                   250          :
          :  Hamiltonian                  GFN2-xTB          :
          :  restarted?                      false          :
          :  GBSA solvation                  false          :
          :  PC potential                    false          :
          :  electronic temp.          300.0000000     K    :
          :  accuracy                    1.0000000          :
          :  -> integral cutoff          0.2500000E+02      :
          :  -> integral neglect         0.1000000E-07      :
          :  -> SCF convergence          0.1000000E-05 Eh   :
          :  -> wf. convergence          0.1000000E-03 e    :
          :  Broyden damping             0.4000000          :
          ...................................................

 iter      E             dE          RMSdq      gap      omega  full diag
   1   -252.8659478 -0.252866E+03  0.422E+00    4.90       0.0  T
   2   -253.4968494 -0.630902E+00  0.245E+00    5.31       1.0  T
   3   -253.5257924 -0.289430E-01  0.131E+00    5.45       1.0  T
   4   -253.5333020 -0.750956E-02  0.212E-01    5.34       1.0  T
   5   -253.5375582 -0.425620E-02  0.794E-02    5.39       1.0  T
   6   -253.5375884 -0.301941E-04  0.277E-02    5.40       1.0  T
   7   -253.5376167 -0.283656E-04  0.885E-03    5.40       1.0  T
   8   -253.5376194 -0.265127E-05  0.371E-03    5.40       2.4  T
   9   -253.5376194 -0.107813E-07  0.208E-03    5.40       4.3  T
  10   -253.5376197 -0.331141E-06  0.568E-04    5.40      15.7  T
  11   -253.5376197 -0.260029E-07  0.771E-05    5.40     115.6  T

   *** convergence criteria satisfied after 11 iterations ***

         #    Occupation            Energy/Eh            Energy/eV
      -------------------------------------------------------------
         1        2.0000           -0.7286425             -19.8274
       ...           ...                  ...                  ...
       211        2.0000           -0.4008688             -10.9082
       212        2.0000           -0.4008565             -10.9079
       213        2.0000           -0.3997126             -10.8767
       214        2.0000           -0.3996906             -10.8761
       215        2.0000           -0.3962938             -10.7837
       216        2.0000           -0.3962477             -10.7824
       217        2.0000           -0.3928859             -10.6910 (HOMO)
       218                         -0.1945662              -5.2944 (LUMO)
       219                         -0.1935294              -5.2662
       220                         -0.1934576              -5.2642
       221                         -0.1932637              -5.2590
       222                         -0.1931781              -5.2566
       ...                                ...                  ...
       378                          0.6861348              18.6707
      -------------------------------------------------------------
                  HL-Gap            0.1983197 Eh            5.3966 eV
             Fermi-level           -0.2937261 Eh           -7.9927 eV

 SCC (total)                   0 d,  0 h,  0 min,  0.507 sec
 SCC setup                      ...        0 min,  0.002 sec (  0.471%)
 Dispersion                     ...        0 min,  0.025 sec (  4.927%)
 classical contributions        ...        0 min,  0.000 sec (  0.046%)
 integral evaluation            ...        0 min,  0.047 sec (  9.226%)
 iterations                     ...        0 min,  0.353 sec ( 69.651%)
 molecular gradient             ...        0 min,  0.076 sec ( 14.982%)
 printout                       ...        0 min,  0.003 sec (  0.681%)

         :::::::::::::::::::::::::::::::::::::::::::::::::::::
         ::                     SUMMARY                     ::
         :::::::::::::::::::::::::::::::::::::::::::::::::::::
         :: total energy            -251.018151670411 Eh    ::
         :: gradient norm              0.172694227133 Eh/a0 ::
         :: HOMO-LUMO gap              5.396554928003 eV    ::
         ::.................................................::
         :: SCC energy              -253.537619743114 Eh    ::
         :: -> isotropic ES            0.603915655389 Eh    ::
         :: -> anisotropic ES          0.041946083464 Eh    ::
         :: -> anisotropic XC          0.034884303214 Eh    ::
         :: -> dispersion             -0.204307611881 Eh    ::
         :: repulsion energy           2.510315192092 Eh    ::
         :: add. restraining           0.000000000000 Eh    ::
         :: total charge               0.000000000000 e     ::
         :::::::::::::::::::::::::::::::::::::::::::::::::::::

      ----------------------------------------------------------- 
     |                   =====================                   |
     |                        A N C O P T                        |
     |                   =====================                   |
     |               Approximate Normal Coordinate               |
     |                Rational Function Optimizer                |
      ----------------------------------------------------------- 

          ...................................................
          :                      SETUP                      :
          :.................................................:
          :   optimization level             tight          :
          :   max. optcycles                   630          :
          :   ANC micro-cycles                  20          :
          :   degrees of freedom               372          :
          :.................................................:
          :   RF solver                   davidson          :
          :   write xtbopt.log                true          :
          :   linear?                        false          :
          :   energy convergence         0.1000000E-05 Eh   :
          :   grad. convergence          0.8000000E-03 Eh/α :
          :   maxmium RF displ.          1.0000000          :
          :   Hlow (freq-cutoff)         0.1000000E-01      :
          :   Hmax (freq-cutoff)         5.0000000          :
          :   S6 in model hess.         20.0000000          :
          ...................................................

generating ANC from model Hessian ...
Using Lindh-Hessian (1995)
 Shifting diagonal of input Hessian by   9.528995856560581E-003
 Lowest  eigenvalues of input Hessian
    0.000000    0.000000    0.000000    0.000000    0.000000    0.000000
    0.010000    0.010001    0.010433    0.010436    0.012538    0.012540
    0.013496    0.013518    0.013873    0.013888    0.013895    0.015478
 Highest eigenvalues
    2.526668    2.527406    2.528146    2.530696    2.531536    2.533065
 

........................................................................
.............................. CYCLE    1 ..............................
........................................................................

 iter      E             dE          RMSdq      gap      omega  full diag
   1   -253.5376197 -0.253538E+03  0.136E-05    5.40       0.0  T
   2   -253.5376197 -0.821387E-11  0.656E-06    5.40    1358.5  T
   3   -253.5376197 -0.824230E-12  0.361E-06    5.40    2466.3  T
     SCC iter.                  ...        0 min,  0.081 sec
     gradient                   ...        0 min,  0.078 sec
 * total energy  :  -251.0181517 Eh     change       -0.2669935E-09 Eh
   gradient norm :     0.1726896 Eh/α   predicted     0.0000000E+00 (-100.00%)
   displ. norm   :     0.2622423 α      lambda       -0.1551553E-01
   maximum displ.:     0.1774015 α      in ANC's #38, #23, #14, ...

........................................................................
.............................. CYCLE    2 ..............................
........................................................................

 iter      E             dE          RMSdq      gap      omega  full diag
   1   -253.5806106 -0.253581E+03  0.109E-01    5.49       0.0  T
   2   -253.5817780 -0.116746E-02  0.632E-02    5.47       1.0  T
   3   -253.5818731 -0.950477E-04  0.346E-02    5.48       1.0  T
   4   -253.5818722  0.931916E-06  0.796E-03    5.48       1.1  T
   5   -253.5818750 -0.284871E-05  0.183E-03    5.48       4.9  T
   6   -253.5818752 -0.151148E-06  0.591E-04    5.48      15.1  T
   7   -253.5818752 -0.649234E-08  0.272E-04    5.48      32.7  T
     SCC iter.                  ...        0 min,  0.178 sec
     gradient                   ...        0 min,  0.076 sec
 * total energy  :  -251.0289192 Eh     change       -0.1076757E-01 Eh
   gradient norm :     0.0598374 Eh/α   predicted    -0.8291286E-02 ( -23.00%)
   displ. norm   :     0.3655672 α      lambda       -0.6122221E-02
   maximum displ.:     0.2525531 α      in ANC's #38, #23, #14, ...

........................................................................
.............................. CYCLE    3 ..............................
........................................................................

 iter      E             dE          RMSdq      gap      omega  full diag
   1   -253.5902947 -0.253590E+03  0.113E-01    5.50       0.0  T
   2   -253.5906676 -0.372952E-03  0.619E-02    5.49       1.0  T
   3   -253.5906905 -0.228449E-04  0.311E-02    5.49       1.0  T
   4   -253.5906993 -0.884075E-05  0.436E-03    5.49       2.0  T
   5   -253.5907004 -0.107293E-05  0.160E-03    5.49       5.6  T
   6   -253.5907004 -0.514731E-07  0.561E-04    5.49      15.9  T
   7   -253.5907004 -0.307264E-08  0.220E-04    5.49      40.5  T
     SCC iter.                  ...        0 min,  0.191 sec
     gradient                   ...        0 min,  0.074 sec
 * total energy  :  -251.0330306 Eh     change       -0.4111377E-02 Eh
   gradient norm :     0.0159116 Eh/α   predicted    -0.3470203E-02 ( -15.60%)
   displ. norm   :     0.3901212 α      lambda       -0.2574253E-02
   maximum displ.:     0.2632762 α      in ANC's #38, #14, #23, ...

........................................................................
.............................. CYCLE    4 ..............................
........................................................................

 iter      E             dE          RMSdq      gap      omega  full diag
   1   -253.5808946 -0.253581E+03  0.994E-02    5.47       0.0  T
   2   -253.5809075 -0.128513E-04  0.588E-02    5.48       1.0  T
   3   -253.5809059  0.156604E-05  0.661E-03    5.47       1.3  T
   4   -253.5809108 -0.487399E-05  0.197E-03    5.48       4.5  T
   5   -253.5809108 -0.286286E-07  0.730E-04    5.48      12.2  T
   6   -253.5809108 -0.101242E-07  0.257E-04    5.48      34.7  T
     SCC iter.                  ...        0 min,  0.157 sec
     gradient                   ...        0 min,  0.076 sec
 * total energy  :  -251.0349402 Eh     change       -0.1909613E-02 Eh
   gradient norm :     0.0229891 Eh/α   predicted    -0.1483028E-02 ( -22.34%)
   displ. norm   :     0.4184331 α      lambda       -0.1822363E-02
   maximum displ.:     0.2805532 α      in ANC's #38, #14, #23, ...

........................................................................
.............................. CYCLE    5 ..............................
........................................................................

 iter      E             dE          RMSdq      gap      omega  full diag
   1   -253.5715185 -0.253572E+03  0.986E-02    5.45       0.0  T
   2   -253.5715911 -0.725301E-04  0.594E-02    5.45       1.0  T
   3   -253.5715838  0.730171E-05  0.163E-02    5.45       1.0  T
   4   -253.5716013 -0.175841E-04  0.272E-03    5.45       3.3  T
   5   -253.5716016 -0.248223E-06  0.126E-03    5.45       7.1  T
   6   -253.5716016 -0.298029E-07  0.565E-04    5.45      15.8  T
   7   -253.5716016 -0.289256E-08  0.166E-04    5.45      53.7  T
     SCC iter.                  ...        0 min,  0.180 sec
     gradient                   ...        0 min,  0.075 sec
 * total energy  :  -251.0362259 Eh     change       -0.1285644E-02 Eh
   gradient norm :     0.0221232 Eh/α   predicted    -0.1070734E-02 ( -16.72%)
   displ. norm   :     0.2908388 α      lambda       -0.9965075E-03
   maximum displ.:     0.1897760 α      in ANC's #38, #14, #23, ...

........................................................................
.............................. CYCLE    6 ..............................
........................................................................

 iter      E             dE          RMSdq      gap      omega  full diag
   1   -253.5717010 -0.253572E+03  0.679E-02    5.45       0.0  T
   2   -253.5717747 -0.737435E-04  0.394E-02    5.45       1.0  T
   3   -253.5717773 -0.257790E-05  0.166E-02    5.45       1.0  T
   4   -253.5717842 -0.685766E-05  0.279E-03    5.45       3.2  T
   5   -253.5717845 -0.297271E-06  0.120E-03    5.45       7.4  T
   6   -253.5717845 -0.284084E-07  0.496E-04    5.45      18.0  T
   7   -253.5717845 -0.194100E-08  0.142E-04    5.45      62.7  T
     SCC iter.                  ...        0 min,  0.168 sec
     gradient                   ...        0 min,  0.079 sec
 * total energy  :  -251.0369107 Eh     change       -0.6848442E-03 Eh
   gradient norm :     0.0139540 Eh/α   predicted    -0.5404125E-03 ( -21.09%)
   displ. norm   :     0.1354705 α      lambda       -0.3794809E-03
   maximum displ.:     0.0925491 α      in ANC's #14, #38, #23, ...

........................................................................
.............................. CYCLE    7 ..............................
........................................................................

 iter      E             dE          RMSdq      gap      omega  full diag
   1   -253.5768370 -0.253577E+03  0.371E-02    5.46       0.0  T
   2   -253.5768640 -0.269651E-04  0.203E-02    5.46       1.0  T
   3   -253.5768658 -0.184316E-05  0.967E-03    5.46       1.0  T
   4   -253.5768675 -0.173614E-05  0.185E-03    5.46       4.8  T
   5   -253.5768676 -0.103178E-06  0.839E-04    5.46      10.6  T
   6   -253.5768677 -0.110860E-07  0.306E-04    5.46      29.1  T
     SCC iter.                  ...        0 min,  0.156 sec
     gradient                   ...        0 min,  0.074 sec
 * total energy  :  -251.0371335 Eh     change       -0.2227647E-03 Eh
   gradient norm :     0.0040792 Eh/α   predicted    -0.1933009E-03 ( -13.23%)
   displ. norm   :     0.0437397 α      lambda       -0.3954558E-04
   maximum displ.:     0.0305676 α      in ANC's #14, #23, #78, ...

........................................................................
.............................. CYCLE    8 ..............................
........................................................................

 iter      E             dE          RMSdq      gap      omega  full diag
   1   -253.5778218 -0.253578E+03  0.108E-02    5.46       0.0  T
   2   -253.5778229 -0.107513E-05  0.623E-03    5.46       1.4  T
   3   -253.5778229  0.150857E-08  0.222E-03    5.46       4.0  T
   4   -253.5778230 -0.150832E-06  0.414E-04    5.46      21.5  T
   5   -253.5778231 -0.449373E-08  0.200E-04    5.46      44.6  T
     SCC iter.                  ...        0 min,  0.136 sec
     gradient                   ...        0 min,  0.079 sec
 * total energy  :  -251.0371612 Eh     change       -0.2773460E-04 Eh
   gradient norm :     0.0021602 Eh/α   predicted    -0.1981263E-04 ( -28.56%)
   displ. norm   :     0.0443823 α      lambda       -0.2335876E-04
   maximum displ.:     0.0283562 α      in ANC's #23, #14, #38, ...

........................................................................
.............................. CYCLE    9 ..............................
........................................................................

 iter      E             dE          RMSdq      gap      omega  full diag
   1   -253.5785539 -0.253579E+03  0.811E-03    5.46       0.0  T
   2   -253.5785540 -0.150373E-06  0.477E-03    5.46       1.9  T
   3   -253.5785540  0.187106E-07  0.811E-04    5.46      11.0  T
   4   -253.5785541 -0.573366E-07  0.234E-04    5.46      38.0  T
     SCC iter.                  ...        0 min,  0.102 sec
     gradient                   ...        0 min,  0.078 sec
 * total energy  :  -251.0371769 Eh     change       -0.1572271E-04 Eh
   gradient norm :     0.0013134 Eh/α   predicted    -0.1170594E-04 ( -25.55%)
   displ. norm   :     0.0490841 α      lambda       -0.9572865E-05
   maximum displ.:     0.0289405 α      in ANC's #38, #14, #23, ...

........................................................................
.............................. CYCLE   10 ..............................
........................................................................

 iter      E             dE          RMSdq      gap      omega  full diag
   1   -253.5786641 -0.253579E+03  0.778E-03    5.46       0.0  T
   2   -253.5786645 -0.395838E-06  0.442E-03    5.46       2.0  T
   3   -253.5786645  0.236502E-07  0.132E-03    5.46       6.8  T
   4   -253.5786645 -0.818526E-07  0.258E-04    5.46      34.6  T
   5   -253.5786645 -0.147057E-08  0.970E-05    5.46      91.9  T
     SCC iter.                  ...        0 min,  0.120 sec
     gradient                   ...        0 min,  0.088 sec
 * total energy  :  -251.0371838 Eh     change       -0.6861402E-05 Eh
   gradient norm :     0.0011013 Eh/α   predicted    -0.4794327E-05 ( -30.13%)
   displ. norm   :     0.0075377 α      lambda       -0.1433886E-05
   maximum displ.:     0.0050601 α      in ANC's #23, #78, #38, ...

........................................................................
.............................. CYCLE   11 ..............................
........................................................................

 iter      E             dE          RMSdq      gap      omega  full diag
   1   -253.5783886 -0.253578E+03  0.217E-03    5.46       0.0  T
   2   -253.5783887 -0.201677E-07  0.127E-03    5.46       7.0  T
   3   -253.5783887 -0.439684E-10  0.279E-04    5.46      32.0  T
   4   -253.5783887 -0.362326E-08  0.782E-05    5.46     113.9  T
     SCC iter.                  ...        0 min,  0.097 sec
     gradient                   ...        0 min,  0.074 sec
 * total energy  :  -251.0371850 Eh     change       -0.1225128E-05 Eh
   gradient norm :     0.0002348 Eh/α   predicted    -0.7246084E-06 ( -40.85%)
   displ. norm   :     0.0048213 α      lambda       -0.1564047E-06
   maximum displ.:     0.0031771 α      in ANC's #14, #6, #1, ...

........................................................................
.............................. CYCLE   12 ..............................
........................................................................

 iter      E             dE          RMSdq      gap      omega  full diag
   1   -253.5782242 -0.253578E+03  0.550E-04    5.46       0.0  T
   2   -253.5782242 -0.243782E-08  0.313E-04    5.46      28.5  T
   3   -253.5782242 -0.109708E-10  0.893E-05    5.46      99.8  T
     SCC iter.                  ...        0 min,  0.075 sec
     gradient                   ...        0 min,  0.101 sec
 * total energy  :  -251.0371852 Eh     change       -0.1613751E-06 Eh
   gradient norm :     0.0000934 Eh/α   predicted    -0.7865973E-07 ( -51.26%)
   displ. norm   :     0.0064027 α      lambda       -0.1086607E-06
   maximum displ.:     0.0049739 α      in ANC's #6, #1, #14, ...

   *** GEOMETRY OPTIMIZATION CONVERGED AFTER 12 ITERATIONS ***

------------------------------------------------------------------------
 total energy gain   :        -0.0190335 Eh      -11.9437 kcal/mol
 total RMSD          :         0.1680726 a0        0.0889 Å
 total power (kW/mol):        -4.1643756 (step)  -15.5957 (real)
------------------------------------------------------------------------

 ANCopt (total)                0 d,  0 h,  0 min,  3.204 sec
 optimizer setup                ...        0 min,  0.001 sec (  0.047%)
 model hessian                  ...        0 min,  0.167 sec (  5.201%)
 ANC generation                 ...        0 min,  0.013 sec (  0.420%)
 coordinate transformation      ...        0 min,  0.002 sec (  0.051%)
 single point calculation       ...        0 min,  2.892 sec ( 90.250%)
 optimization log               ...        0 min,  0.116 sec (  3.627%)
 hessian update                 ...        0 min,  0.001 sec (  0.045%)
 rational function              ...        0 min,  0.005 sec (  0.146%)

================
 final structure:
================
HETATM    1  N   UNL     1       4.957  -1.599  -1.216  1.00  0.00           N  
HETATM    2  C   UNL     1       5.675  -1.334  -0.001  1.00  0.00           C  
HETATM    3  C   UNL     1       5.828   0.212  -0.001  1.00  0.00           C  
HETATM    4  N   UNL     1       5.176   0.613  -1.216  1.00  0.00           N  
HETATM    5  C   UNL     1       4.723  -0.459  -1.959  1.00  0.00           C  
HETATM    6  N   UNL     1       4.958  -1.599   1.214  1.00  0.00           N  
HETATM    7  C   UNL     1       4.724  -0.460   1.957  1.00  0.00           C  
HETATM    8  N   UNL     1       5.176   0.613   1.215  1.00  0.00           N  
HETATM    9  O   UNL     1       4.290  -0.416  -3.073  1.00  0.00           O  
HETATM   10  O   UNL     1       4.291  -0.417   3.071  1.00  0.00           O  
HETATM   11  N   UNL     1       4.344   2.877  -1.216  1.00  0.00           N  
HETATM   12  C   UNL     1       4.582   3.604  -0.000  1.00  0.00           C  
HETATM   13  C   UNL     1       3.465   4.684  -0.000  1.00  0.00           C  
HETATM   14  N   UNL     1       2.746   4.421  -1.215  1.00  0.00           N  
HETATM   15  C   UNL     1       3.305   3.400  -1.958  1.00  0.00           C  
HETATM   16  N   UNL     1       4.345   2.877   1.215  1.00  0.00           N  
HETATM   17  C   UNL     1       3.305   3.400   1.957  1.00  0.00           C  
HETATM   18  N   UNL     1       2.747   4.421   1.215  1.00  0.00           N  
HETATM   19  O   UNL     1       3.002   3.088  -3.072  1.00  0.00           O  
HETATM   20  O   UNL     1       3.003   3.087   3.072  1.00  0.00           O  
HETATM   21  N   UNL     1      -0.553  -5.175  -1.216  1.00  0.00           N  
HETATM   22  C   UNL     1      -1.088  -5.721  -0.000  1.00  0.00           C  
HETATM   23  C   UNL     1      -2.562  -5.228   0.000  1.00  0.00           C  
HETATM   24  N   UNL     1      -2.661  -4.470  -1.215  1.00  0.00           N  
HETATM   25  C   UNL     1      -1.498  -4.495  -1.958  1.00  0.00           C  
HETATM   26  N   UNL     1      -0.553  -5.174   1.215  1.00  0.00           N  
HETATM   27  C   UNL     1      -1.497  -4.494   1.957  1.00  0.00           C  
HETATM   28  N   UNL     1      -2.661  -4.470   1.215  1.00  0.00           N  
HETATM   29  O   UNL     1      -1.360  -4.082  -3.072  1.00  0.00           O  
HETATM   30  O   UNL     1      -1.359  -4.081   3.072  1.00  0.00           O  
HETATM   31  N   UNL     1      -4.932   1.693  -1.215  1.00  0.00           N  
HETATM   32  C   UNL     1      -5.344   2.337   0.001  1.00  0.00           C  
HETATM   33  C   UNL     1      -4.534   3.663   0.001  1.00  0.00           C  
HETATM   34  N   UNL     1      -3.773   3.590  -1.215  1.00  0.00           N  
HETATM   35  C   UNL     1      -4.058   2.461  -1.957  1.00  0.00           C  
HETATM   36  N   UNL     1      -4.932   1.693   1.216  1.00  0.00           N  
HETATM   37  C   UNL     1      -4.057   2.461   1.958  1.00  0.00           C  
HETATM   38  N   UNL     1      -3.773   3.589   1.216  1.00  0.00           N  
HETATM   39  O   UNL     1      -3.687   2.234  -3.071  1.00  0.00           O  
HETATM   40  O   UNL     1      -3.685   2.234   3.072  1.00  0.00           O  
HETATM   41  N   UNL     1       0.457   5.181  -1.215  1.00  0.00           N  
HETATM   42  C   UNL     1       0.038   5.821   0.001  1.00  0.00           C  
HETATM   43  C   UNL     1      -1.503   5.625   0.001  1.00  0.00           C  
HETATM   44  N   UNL     1      -1.748   4.900  -1.215  1.00  0.00           N  
HETATM   45  C   UNL     1      -0.602   4.698  -1.957  1.00  0.00           C  
HETATM   46  N   UNL     1       0.457   5.181   1.216  1.00  0.00           N  
HETATM   47  C   UNL     1      -0.601   4.697   1.958  1.00  0.00           C  
HETATM   48  N   UNL     1      -1.748   4.900   1.216  1.00  0.00           N  
HETATM   49  O   UNL     1      -0.547   4.267  -3.071  1.00  0.00           O  
HETATM   50  O   UNL     1      -0.546   4.266   3.072  1.00  0.00           O  
HETATM   51  C   UNL     1      -3.896  -4.011  -1.783  1.00  0.00           C  
HETATM   52  C   UNL     1       5.259   1.928   1.782  1.00  0.00           C  
HETATM   53  C   UNL     1      -3.895  -4.012   1.784  1.00  0.00           C  
HETATM   54  C   UNL     1       5.259   1.928  -1.783  1.00  0.00           C  
HETATM   55  N   UNL     1       3.704  -3.659  -1.216  1.00  0.00           N  
HETATM   56  C   UNL     1       3.798  -4.419  -0.001  1.00  0.00           C  
HETATM   57  C   UNL     1       2.495  -5.265  -0.001  1.00  0.00           C  
HETATM   58  N   UNL     1       1.839  -4.870  -1.216  1.00  0.00           N  
HETATM   59  C   UNL     1       2.583  -3.975  -1.958  1.00  0.00           C  
HETATM   60  N   UNL     1       3.704  -3.660   1.214  1.00  0.00           N  
HETATM   61  C   UNL     1       2.584  -3.975   1.957  1.00  0.00           C  
HETATM   62  N   UNL     1       1.840  -4.870   1.215  1.00  0.00           N  
HETATM   63  O   UNL     1       2.346  -3.610  -3.072  1.00  0.00           O  
HETATM   64  O   UNL     1       2.347  -3.610   3.071  1.00  0.00           O  
HETATM   65  C   UNL     1       4.783  -2.905  -1.784  1.00  0.00           C  
HETATM   66  C   UNL     1       4.784  -2.905   1.782  1.00  0.00           C  
HETATM   67  C   UNL     1       0.711  -5.549   1.782  1.00  0.00           C  
HETATM   68  C   UNL     1       0.710  -5.549  -1.783  1.00  0.00           C  
HETATM   69  C   UNL     1       1.768   5.304  -1.783  1.00  0.00           C  
HETATM   70  C   UNL     1       1.769   5.304   1.784  1.00  0.00           C  
HETATM   71  C   UNL     1      -3.048   4.690  -1.783  1.00  0.00           C  
HETATM   72  C   UNL     1      -3.048   4.689   1.784  1.00  0.00           C  
HETATM   73  N   UNL     1      -5.166  -0.708   1.216  1.00  0.00           N  
HETATM   74  C   UNL     1      -5.694  -1.260   0.001  1.00  0.00           C  
HETATM   75  C   UNL     1      -5.155  -2.717   0.001  1.00  0.00           C  
HETATM   76  N   UNL     1      -4.394  -2.792   1.216  1.00  0.00           N  
HETATM   77  C   UNL     1      -4.455  -1.630   1.959  1.00  0.00           C  
HETATM   78  N   UNL     1      -5.165  -0.707  -1.214  1.00  0.00           N  
HETATM   79  C   UNL     1      -4.455  -1.630  -1.957  1.00  0.00           C  
HETATM   80  N   UNL     1      -4.394  -2.792  -1.215  1.00  0.00           N  
HETATM   81  O   UNL     1      -4.048  -1.479   3.073  1.00  0.00           O  
HETATM   82  O   UNL     1      -4.048  -1.479  -3.071  1.00  0.00           O  
HETATM   83  C   UNL     1      -5.578   0.544   1.783  1.00  0.00           C  
HETATM   84  C   UNL     1      -5.578   0.544  -1.781  1.00  0.00           C  
HETATM   85  H   UNL     1       6.632  -1.889  -0.002  1.00  0.00           H  
HETATM   86  H   UNL     1       6.875   0.570  -0.001  1.00  0.00           H  
HETATM   87  H   UNL     1       5.611   4.009  -0.000  1.00  0.00           H  
HETATM   88  H   UNL     1       3.835   5.726  -0.000  1.00  0.00           H  
HETATM   89  H   UNL     1      -0.972  -6.821   0.000  1.00  0.00           H  
HETATM   90  H   UNL     1      -3.316  -6.038   0.001  1.00  0.00           H  
HETATM   91  H   UNL     1      -6.442   2.471   0.001  1.00  0.00           H  
HETATM   92  H   UNL     1      -5.154   4.579   0.001  1.00  0.00           H  
HETATM   93  H   UNL     1       0.366   6.878   0.001  1.00  0.00           H  
HETATM   94  H   UNL     1      -2.085   6.565   0.001  1.00  0.00           H  
HETATM   95  H   UNL     1      -4.660  -4.800  -1.682  1.00  0.00           H  
HETATM   96  H   UNL     1      -3.687  -3.795  -2.839  1.00  0.00           H  
HETATM   97  H   UNL     1       4.979   1.825   2.839  1.00  0.00           H  
HETATM   98  H   UNL     1       6.289   2.306   1.678  1.00  0.00           H  
HETATM   99  H   UNL     1      -3.686  -3.795   2.840  1.00  0.00           H  
HETATM  100  H   UNL     1      -4.659  -4.800   1.683  1.00  0.00           H  
HETATM  101  H   UNL     1       4.979   1.825  -2.840  1.00  0.00           H  
HETATM  102  H   UNL     1       6.288   2.306  -1.679  1.00  0.00           H  
HETATM  103  H   UNL     1       4.731  -5.013  -0.001  1.00  0.00           H  
HETATM  104  H   UNL     1       2.658  -6.359  -0.001  1.00  0.00           H  
HETATM  105  H   UNL     1       4.527  -2.749  -2.841  1.00  0.00           H  
HETATM  106  H   UNL     1       5.721  -3.475  -1.683  1.00  0.00           H  
HETATM  107  H   UNL     1       4.528  -2.749   2.838  1.00  0.00           H  
HETATM  108  H   UNL     1       5.722  -3.476   1.680  1.00  0.00           H  
HETATM  109  H   UNL     1       0.673  -5.252   2.839  1.00  0.00           H  
HETATM  110  H   UNL     1       0.849  -6.637   1.679  1.00  0.00           H  
HETATM  111  H   UNL     1       0.672  -5.252  -2.840  1.00  0.00           H  
HETATM  112  H   UNL     1       0.849  -6.637  -1.680  1.00  0.00           H  
HETATM  113  H   UNL     1       1.674   5.019  -2.839  1.00  0.00           H  
HETATM  114  H   UNL     1       2.114   6.346  -1.681  1.00  0.00           H  
HETATM  115  H   UNL     1       1.674   5.019   2.840  1.00  0.00           H  
HETATM  116  H   UNL     1       2.114   6.345   1.682  1.00  0.00           H  
HETATM  117  H   UNL     1      -2.885   4.438  -2.839  1.00  0.00           H  
HETATM  118  H   UNL     1      -3.644   5.611  -1.681  1.00  0.00           H  
HETATM  119  H   UNL     1      -3.644   5.610   1.683  1.00  0.00           H  
HETATM  120  H   UNL     1      -2.884   4.437   2.840  1.00  0.00           H  
HETATM  121  H   UNL     1      -6.798  -1.179   0.001  1.00  0.00           H  
HETATM  122  H   UNL     1      -5.940  -3.496   0.001  1.00  0.00           H  
HETATM  123  H   UNL     1      -5.282   0.515   2.840  1.00  0.00           H  
HETATM  124  H   UNL     1      -6.669   0.651   1.678  1.00  0.00           H  
HETATM  125  H   UNL     1      -6.670   0.650  -1.676  1.00  0.00           H  
HETATM  126  H   UNL     1      -5.282   0.515  -2.838  1.00  0.00           H  
END
 
 Bond Distances (Angstroems)
 ---------------------------
N1-C2=1.4360         N1-C5=1.3804         N1-C65=1.4346        C2-N1=1.4360         C2-C3=1.5540         C2-N6=1.4360         
C2-H85=1.1061        C3-C2=1.5540         C3-N4=1.4360         C3-N8=1.4360         C3-H86=1.1061        N4-C3=1.4360         
N4-C5=1.3804         N4-C54=1.4346        C5-N1=1.3804         C5-N4=1.3804         C5-O9=1.1961         N6-C2=1.4360         
N6-C7=1.3804         N6-C66=1.4346        C7-N6=1.3804         C7-N8=1.3804         C7-O10=1.1961        N8-C3=1.4360         
N8-C7=1.3804         N8-C52=1.4346        O9-C5=1.1961         O10-C7=1.1961        N11-C12=1.4360       N11-C15=1.3804       
N11-C54=1.4346       C12-N11=1.4360       C12-C13=1.5540       C12-N16=1.4360       C12-H87=1.1061       C13-C12=1.5540       
C13-N14=1.4360       C13-N18=1.4360       C13-H88=1.1061       N14-C13=1.4360       N14-C15=1.3804       N14-C69=1.4346       
C15-N11=1.3804       C15-N14=1.3804       C15-O19=1.1961       N16-C12=1.4360       N16-C17=1.3804       N16-C52=1.4346       
C17-N16=1.3804       C17-N18=1.3804       C17-O20=1.1961       N18-C13=1.4360       N18-C17=1.3804       N18-C70=1.4346       
O19-C15=1.1961       O20-C17=1.1961       N21-C22=1.4360       N21-C25=1.3804       N21-C68=1.4346       C22-N21=1.4360       
C22-C23=1.5540       C22-N26=1.4360       C22-H89=1.1061       C23-C22=1.5540       C23-N24=1.4360       C23-N28=1.4360       
C23-H90=1.1061       N24-C23=1.4360       N24-C25=1.3804       N24-C51=1.4346       C25-N21=1.3804       C25-N24=1.3804       
C25-O29=1.1961       N26-C22=1.4360       N26-C27=1.3804       N26-C67=1.4346       C27-N26=1.3804       C27-N28=1.3804       
C27-O30=1.1961       N28-C23=1.4360       N28-C27=1.3804       N28-C53=1.4346       O29-C25=1.1961       O30-C27=1.1961       
N31-C32=1.4360       N31-C35=1.3804       N31-C84=1.4346       C32-N31=1.4360       C32-C33=1.5540       C32-N36=1.4360       
C32-H91=1.1061       C33-C32=1.5540       C33-N34=1.4360       C33-N38=1.4360       C33-H92=1.1061       N34-C33=1.4360       
N34-C35=1.3804       N34-C71=1.4346       C35-N31=1.3804       C35-N34=1.3804       C35-O39=1.1961       N36-C32=1.4360       
N36-C37=1.3804       N36-C83=1.4346       C37-N36=1.3804       C37-N38=1.3804       C37-O40=1.1960       N38-C33=1.4360       
N38-C37=1.3804       N38-C72=1.4346       O39-C35=1.1961       O40-C37=1.1960       N41-C42=1.4360       N41-C45=1.3804       
N41-C69=1.4346       C42-N41=1.4360       C42-C43=1.5540       C42-N46=1.4360       C42-H93=1.1061       C43-C42=1.5540       
C43-N44=1.4360       C43-N48=1.4360       C43-H94=1.1061       N44-C43=1.4360       N44-C45=1.3804       N44-C71=1.4346       
C45-N41=1.3804       C45-N44=1.3804       C45-O49=1.1961       N46-C42=1.4360       N46-C47=1.3804       N46-C70=1.4346       
C47-N46=1.3804       C47-N48=1.3804       C47-O50=1.1961       N48-C43=1.4360       N48-C47=1.3804       N48-C72=1.4346       
O49-C45=1.1961       O50-C47=1.1961       C51-N24=1.4346       C51-N80=1.4346       C51-H95=1.1019       C51-H96=1.0980       
C52-N8=1.4346        C52-N16=1.4346       C52-H97=1.0980       C52-H98=1.1018       C53-N28=1.4346       C53-N76=1.4346       
C53-H99=1.0980       C53-H100=1.1019      C54-N4=1.4346        C54-N11=1.4346       C54-H101=1.0980      C54-H102=1.1018      
N55-C56=1.4360       N55-C59=1.3804       N55-C65=1.4346       C56-N55=1.4360       C56-C57=1.5540       C56-N60=1.4360       
C56-H103=1.1061      C57-C56=1.5540       C57-N58=1.4360       C57-N62=1.4360       C57-H104=1.1061      N58-C57=1.4360       
N58-C59=1.3804       N58-C68=1.4346       C59-N55=1.3804       C59-N58=1.3804       C59-O63=1.1961       N60-C56=1.4360       
N60-C61=1.3804       N60-C66=1.4346       C61-N60=1.3804       C61-N62=1.3804       C61-O64=1.1961       N62-C57=1.4360       
N62-C61=1.3804       N62-C67=1.4346       O63-C59=1.1961       O64-C61=1.1961       C65-N1=1.4346        C65-N55=1.4346       
C65-H105=1.0980      C65-H106=1.1019      C66-N6=1.4346        C66-N60=1.4346       C66-H107=1.0980      C66-H108=1.1019      
C67-N26=1.4346       C67-N62=1.4346       C67-H109=1.0980      C67-H110=1.1019      C68-N21=1.4346       C68-N58=1.4346       
C68-H111=1.0980      C68-H112=1.1018      C69-N14=1.4346       C69-N41=1.4346       C69-H113=1.0980      C69-H114=1.1019      
C70-N18=1.4346       C70-N46=1.4346       C70-H115=1.0980      C70-H116=1.1019      C71-N34=1.4346       C71-N44=1.4346       
C71-H117=1.0980      C71-H118=1.1019      C72-N38=1.4346       C72-N48=1.4346       C72-H119=1.1019      C72-H120=1.0980      
N73-C74=1.4360       N73-C77=1.3804       N73-C83=1.4346       C74-N73=1.4360       C74-C75=1.5540       C74-N78=1.4360       
C74-H121=1.1061      C75-C74=1.5540       C75-N76=1.4360       C75-N80=1.4360       C75-H122=1.1061      N76-C53=1.4346       
N76-C75=1.4360       N76-C77=1.3804       C77-N73=1.3804       C77-N76=1.3804       C77-O81=1.1961       N78-C74=1.4360       
N78-C79=1.3804       N78-C84=1.4346       C79-N78=1.3804       C79-N80=1.3804       C79-O82=1.1960       N80-C51=1.4346       
N80-C75=1.4360       N80-C79=1.3804       O81-C77=1.1961       O82-C79=1.1960       C83-N36=1.4346       C83-N73=1.4346       
C83-H123=1.0980      C83-H124=1.1018      C84-N31=1.4346       C84-N78=1.4346       C84-H125=1.1018      C84-H126=1.0980      
H85-C2=1.1061        H86-C3=1.1061        H87-C12=1.1061       H88-C13=1.1061       H89-C22=1.1061       H90-C23=1.1061       
H91-C32=1.1061       H92-C33=1.1061       H93-C42=1.1061       H94-C43=1.1061       H95-C51=1.1019       H96-C51=1.0980       
H97-C52=1.0980       H98-C52=1.1018       H99-C53=1.0980       H100-C53=1.1019      H101-C54=1.0980      H102-C54=1.1018      
H103-C56=1.1061      H104-C57=1.1061      H105-C65=1.0980      H106-C65=1.1019      H107-C66=1.0980      H108-C66=1.1019      
H109-C67=1.0980      H110-C67=1.1019      H111-C68=1.0980      H112-C68=1.1018      H113-C69=1.0980      H114-C69=1.1019      
H115-C70=1.0980      H116-C70=1.1019      H117-C71=1.0980      H118-C71=1.1019      H119-C72=1.1019      H120-C72=1.0980      
H121-C74=1.1061      H122-C75=1.1061      H123-C83=1.0980      H124-C83=1.1018      H125-C84=1.1018      H126-C84=1.0980      
 C  H  Rav=1.1020 sigma=0.0033  Rmin=1.0980  Rmax=1.1061    42
 C  C  Rav=1.5540 sigma=0.0000  Rmin=1.5540  Rmax=1.5540     7
 N  C  Rav=1.4170 sigma=0.0259  Rmin=1.3804  Rmax=1.4360    84
 O  C  Rav=1.1961 sigma=0.0000  Rmin=1.1960  Rmax=1.1961    14
 
 selected bond angles (degree)
 --------------------
C5-N1-C2=112.80                C65-N1-C2=124.31               C65-N1-C5=121.21               C3-C2-N1=103.46                
N6-C2-N1=115.63                N6-C2-C3=103.46                H85-C2-N1=109.85               H85-C2-C3=114.48               
H85-C2-N6=109.85               N4-C3-C2=103.46                N8-C3-C2=103.46                N8-C3-N4=115.64                
H86-C3-C2=114.48               H86-C3-N4=109.84               H86-C3-N8=109.84               C5-N4-C3=112.81                
C54-N4-C3=124.32               C54-N4-C5=121.22               N4-C5-N1=107.23                O9-C5-N1=126.30                
O9-C5-N4=126.30                C7-N6-C2=112.81                C66-N6-C2=124.31               C66-N6-C7=121.21               
N8-C7-N6=107.23                O10-C7-N6=126.30               O10-C7-N8=126.30               C7-N8-C3=112.81                
C52-N8-C3=124.32               C52-N8-C7=121.22               
 
 selected dihedral angles (degree)
 ---------------------------------
C3-C2-N1-C5=  2.94            C3-C2-N1-C65=168.27           N6-C2-N1-C5=115.30            N6-C2-N1-C65=280.63           
H85-C2-N1-C5=240.30           H85-C2-N1-C65= 45.63          N4-C3-C2-N1=  0.00            N4-C3-C2-N6=239.00            
N4-C3-C2-H85=119.49           N8-C3-C2-N1=120.97            N8-C3-C2-N6=  0.00            N8-C3-C2-H85=240.48           
H86-C3-C2-N1=240.47           H86-C3-C2-N6=119.50           H86-C3-C2-H85=  0.00          C5-N4-C3-C2=357.10            
C5-N4-C3-N8=244.74            C5-N4-C3-H86=119.74           C54-N4-C3-C2=191.62           C54-N4-C3-N8= 79.26           
C54-N4-C3-H86=314.26          N4-C5-N1-C2=355.20            N4-C5-N1-C65=189.35           O9-C5-N1-C2=170.66            
O9-C5-N1-C65=  4.82           N1-C5-N4-C3=  4.79            N1-C5-N4-C54=170.77           O9-C5-N4-C3=189.32            
O9-C5-N4-C54=355.31           C7-N6-C2-N1=244.73            C7-N6-C2-C3=357.09            C7-N6-C2-H85=119.73           
C66-N6-C2-N1= 79.36           C66-N6-C2-C3=191.72           C66-N6-C2-H85=314.36          N8-C7-N6-C2=  4.79            
N8-C7-N6-C66=170.67           O10-C7-N6-C2=189.32           O10-C7-N6-C66=355.21          C7-N8-C3-C2=  2.93            
C7-N8-C3-N4=115.29            C7-N8-C3-H86=240.29           C52-N8-C3-C2=168.38           C52-N8-C3-N4=280.74           
C52-N8-C3-H86= 45.74          C3-N8-C7-N6=355.20            C3-N8-C7-O10=170.67           C52-N8-C7-N6=189.24           
C52-N8-C7-O10=  4.71          
           -------------------------------------------------
          |                Final Singlepoint                |
           -------------------------------------------------

          ...................................................
          :                      SETUP                      :
          :.................................................:
          :  # basis functions                 378          :
          :  # atomic orbitals                 378          :
          :  # shells                          210          :
          :  # electrons                       434          :
          :  max. iterations                   250          :
          :  Hamiltonian                  GFN2-xTB          :
          :  restarted?                      false          :
          :  GBSA solvation                  false          :
          :  PC potential                    false          :
          :  electronic temp.          300.0000000     K    :
          :  accuracy                    1.0000000          :
          :  -> integral cutoff          0.2500000E+02      :
          :  -> integral neglect         0.1000000E-07      :
          :  -> SCF convergence          0.1000000E-05 Eh   :
          :  -> wf. convergence          0.1000000E-03 e    :
          :  Broyden damping             0.4000000          :
          ...................................................

 iter      E             dE          RMSdq      gap      omega  full diag
   1   -253.5782242 -0.253578E+03  0.159E-05    5.46       0.0  T
   2   -253.5782242 -0.554223E-11  0.855E-06    5.46    1041.6  T
   3   -253.5782242  0.125056E-11  0.398E-06    5.46    2237.7  T

   *** convergence criteria satisfied after 3 iterations ***

         #    Occupation            Energy/Eh            Energy/eV
      -------------------------------------------------------------
         1        2.0000           -0.7311900             -19.8967
       ...           ...                  ...                  ...
       211        2.0000           -0.4070998             -11.0778
       212        2.0000           -0.4067311             -11.0677
       213        2.0000           -0.4066831             -11.0664
       214        2.0000           -0.4066821             -11.0664
       215        2.0000           -0.4049432             -11.0191
       216        2.0000           -0.4049405             -11.0190
       217        2.0000           -0.4011284             -10.9153 (HOMO)
       218                         -0.2004445              -5.4544 (LUMO)
       219                         -0.2004439              -5.4544
       220                         -0.1985251              -5.4021
       221                         -0.1972787              -5.3682
       222                         -0.1972550              -5.3676
       ...                                ...                  ...
       378                          0.7211913              19.6246
      -------------------------------------------------------------
                  HL-Gap            0.2006839 Eh            5.4609 eV
             Fermi-level           -0.3007865 Eh           -8.1848 eV

 SCC (total)                   0 d,  0 h,  0 min,  0.271 sec
 SCC setup                      ...        0 min,  0.002 sec (  0.746%)
 Dispersion                     ...        0 min,  0.002 sec (  0.805%)
 classical contributions        ...        0 min,  0.000 sec (  0.072%)
 integral evaluation            ...        0 min,  0.018 sec (  6.739%)
 iterations                     ...        0 min,  0.144 sec ( 53.206%)
 molecular gradient             ...        0 min,  0.100 sec ( 36.979%)
 printout                       ...        0 min,  0.004 sec (  1.424%)

         :::::::::::::::::::::::::::::::::::::::::::::::::::::
         ::                     SUMMARY                     ::
         :::::::::::::::::::::::::::::::::::::::::::::::::::::
         :: total energy            -251.037185193606 Eh    ::
         :: gradient norm              0.000096406041 Eh/a0 ::
         :: HOMO-LUMO gap              5.460887701199 eV    ::
         ::.................................................::
         :: SCC energy              -253.578224203785 Eh    ::
         :: -> isotropic ES            0.573480125795 Eh    ::
         :: -> anisotropic ES          0.036318780178 Eh    ::
         :: -> anisotropic XC          0.036660920116 Eh    ::
         :: -> dispersion             -0.202521241848 Eh    ::
         :: repulsion energy           2.532264271376 Eh    ::
         :: add. restraining           0.000000000000 Eh    ::
         :: total charge              -0.000000000000 e     ::
         :::::::::::::::::::::::::::::::::::::::::::::::::::::

           ------------------------------------------------- 
          |                Numerical Hessian                |
           ------------------------------------------------- 
step length          :   0.00500
SCC accuracy         :   0.30000
Hessian scale factor :   1.00000
frozen atoms in %    :   0.00000    0
RMS gradient         :   0.00010
estimated CPU  time     74.43 min
estimated wall time      9.39 min

writing file <hessian>.

 projected vibrational frequencies (cm⁻¹)
eigval :       -0.00     0.00     0.00     0.00     0.00     0.00
eigval :       16.10    16.33    17.03    19.23    40.91    40.91
eigval :       40.98    41.13    64.01    64.11    64.99    65.23
eigval :       65.49    65.62    78.77    78.86    81.45    86.19
eigval :       86.28    87.24    88.58    88.62   108.40   108.43
eigval :      124.60   130.29   130.51   131.84   132.03   140.18
eigval :      140.47   141.86   142.29   143.07   143.67   165.20
eigval :      165.43   168.63   168.79   170.38   172.77   172.82
eigval :      192.05   193.51   219.87   219.95   221.76   222.07
eigval :      224.71   242.47   242.70   243.22   243.43   279.46
eigval :      279.56   280.79   280.79   311.00   311.03   311.10
eigval :      321.54   321.59   330.67   331.01   331.06   332.49
eigval :      332.68   333.58   333.72   336.55   336.66   337.14
eigval :      337.71   337.85   344.37   344.41   383.02   383.04
eigval :      402.03   407.34   407.42   411.84   416.60   416.64
eigval :      417.01   417.07   440.00   440.13   502.41   502.52
eigval :      551.85   551.93   590.35   590.54   592.53   592.59
eigval :      599.74   602.56   602.65   605.29   605.31   608.05
eigval :      608.07   608.65   608.69   612.37   633.88   636.29
eigval :      636.32   641.11   641.13   642.86   642.90   644.26
eigval :      644.31   647.41   647.43   647.87   647.92   651.65
eigval :      651.71   655.67   655.77   659.32   659.94   660.45
eigval :      660.49   661.79   661.93   662.21   662.23   663.36
eigval :      663.37   666.70   764.50   764.50   770.11   770.13
eigval :      774.75   774.75   780.50   780.54   785.20   789.86
eigval :      789.94   794.45   795.51   795.54   836.14   837.47
eigval :      837.56   844.07   844.17   853.71   853.72   905.20
eigval :      905.21   909.43   909.50   910.99   911.29   911.35
eigval :      962.79   962.85   964.41   964.41   968.16   968.19
eigval :      968.46   968.52   968.97   969.02   970.03   970.03
eigval :      972.66   973.82   981.81   981.85  1001.19  1006.08
eigval :     1006.20  1006.23  1006.27  1014.63  1014.69  1018.16
eigval :     1018.18  1029.27  1029.35  1037.46  1104.46  1116.72
eigval :     1116.76  1119.63  1119.63  1128.34  1128.35  1130.56
eigval :     1130.63  1135.28  1135.29  1136.18  1140.98  1141.00
eigval :     1154.58  1165.45  1165.48  1170.40  1172.28  1172.36
eigval :     1177.07  1177.08  1179.68  1179.71  1185.36  1185.38
eigval :     1187.15  1187.21  1189.43  1194.24  1194.25  1203.86
eigval :     1203.99  1206.98  1207.00  1219.15  1219.20  1220.82
eigval :     1226.13  1226.16  1240.85  1240.89  1248.47  1258.10
eigval :     1258.10  1261.61  1261.64  1262.38  1262.39  1264.20
eigval :     1264.20  1266.15  1266.18  1268.79  1268.80  1268.87
eigval :     1268.90  1269.08  1269.08  1269.91  1271.38  1275.13
eigval :     1275.17  1278.00  1278.00  1279.55  1279.58  1288.87
eigval :     1288.94  1293.34  1326.10  1329.61  1329.64  1334.54
eigval :     1335.55  1335.75  1335.76  1336.96  1336.97  1337.58
eigval :     1337.59  1338.00  1338.04  1338.55  1338.56  1338.74
eigval :     1338.74  1342.21  1344.21  1344.28  1345.12  1345.14
eigval :     1353.45  1353.51  1353.52  1353.53  1363.70  1363.71
eigval :     1364.49  1371.11  1371.17  1371.87  1371.88  1375.39
eigval :     1375.43  1377.07  1377.10  1377.37  1377.49  1378.61
eigval :     1378.70  1378.76  1378.98  1380.75  1380.75  1380.83
eigval :     1380.87  1380.94  1380.99  1381.08  1381.38  1381.40
eigval :     1381.41  1381.41  1381.74  1381.79  1804.96  1804.97
eigval :     1813.93  1814.05  1814.71  1814.76  1826.96  1827.63
eigval :     1829.92  1830.03  1846.53  1846.83  1848.96  1859.47
eigval :     2777.18  2777.56  2777.59  2778.49  2778.53  2779.35
eigval :     2779.36  2788.74  2788.75  2789.84  2789.93  2791.41
eigval :     2791.43  2792.82  2843.04  2843.16  2843.49  2843.82
eigval :     2844.44  2844.81  2845.14  2845.82  2845.88  2846.32
eigval :     2846.83  2847.76  2848.25  2849.55  2924.19  2924.19
eigval :     2924.39  2924.39  2924.55  2924.56  2924.72  2924.74
eigval :     2924.94  2924.95  2925.16  2925.22  2925.23  2925.61
           -------------------------------------------------
          |                Property Printout                |
           -------------------------------------------------

    * Orbital Energies and Occupations

         #    Occupation            Energy/Eh            Energy/eV
      -------------------------------------------------------------
         1        2.0000           -0.7311899             -19.8967
       ...           ...                  ...                  ...
       205        2.0000           -0.4111717             -11.1886
       206        2.0000           -0.4082797             -11.1099
       207        2.0000           -0.4082671             -11.1095
       208        2.0000           -0.4079623             -11.1012
       209        2.0000           -0.4079395             -11.1006
       210        2.0000           -0.4071000             -11.0778
       211        2.0000           -0.4070998             -11.0777
       212        2.0000           -0.4067311             -11.0677
       213        2.0000           -0.4066831             -11.0664
       214        2.0000           -0.4066821             -11.0664
       215        2.0000           -0.4049432             -11.0191
       216        2.0000           -0.4049405             -11.0190
       217        2.0000           -0.4011284             -10.9153 (HOMO)
       218                         -0.2004445              -5.4544 (LUMO)
       219                         -0.2004439              -5.4544
       220                         -0.1985251              -5.4021
       221                         -0.1972787              -5.3682
       222                         -0.1972550              -5.3676
       223                         -0.1971510              -5.3648
       224                         -0.1971359              -5.3643
       225                         -0.1950841              -5.3085
       226                         -0.1950559              -5.3077
       227                         -0.1942795              -5.2866
       228                         -0.1942793              -5.2866
       ...                                ...                  ...
       378                          0.7211913              19.6246
      -------------------------------------------------------------
                  HL-Gap            0.2006839 Eh            5.4609 eV
             Fermi-level           -0.3007865 Eh           -8.1848 eV

     #   Z          covCN         q      C6AA      α(0)
     1   7  N       2.775    -0.153    24.296     7.321
     2   6  C       3.806     0.107    18.819     6.176
     3   6  C       3.806     0.107    18.819     6.176
     4   7  N       2.775    -0.153    24.296     7.321
     5   6  C       2.756     0.327    21.441     7.583
     6   7  N       2.775    -0.153    24.295     7.321
     7   6  C       2.756     0.327    21.441     7.583
     8   7  N       2.775    -0.153    24.296     7.321
     9   8  O       0.858    -0.398    21.631     6.236
    10   8  O       0.858    -0.398    21.631     6.236
    11   7  N       2.775    -0.153    24.296     7.321
    12   6  C       3.806     0.107    18.819     6.176
    13   6  C       3.806     0.107    18.819     6.176
    14   7  N       2.775    -0.153    24.295     7.321
    15   6  C       2.756     0.327    21.441     7.583
    16   7  N       2.775    -0.153    24.296     7.321
    17   6  C       2.756     0.327    21.441     7.583
    18   7  N       2.775    -0.153    24.295     7.321
    19   8  O       0.858    -0.398    21.632     6.236
    20   8  O       0.858    -0.398    21.632     6.236
    21   7  N       2.775    -0.153    24.295     7.321
    22   6  C       3.806     0.107    18.819     6.176
    23   6  C       3.806     0.107    18.819     6.176
    24   7  N       2.775    -0.153    24.295     7.321
    25   6  C       2.756     0.327    21.441     7.583
    26   7  N       2.775    -0.153    24.295     7.321
    27   6  C       2.756     0.327    21.441     7.583
    28   7  N       2.775    -0.153    24.295     7.321
    29   8  O       0.858    -0.398    21.632     6.236
    30   8  O       0.858    -0.398    21.632     6.236
    31   7  N       2.775    -0.153    24.296     7.321
    32   6  C       3.806     0.107    18.819     6.176
    33   6  C       3.806     0.107    18.819     6.176
    34   7  N       2.775    -0.153    24.295     7.321
    35   6  C       2.756     0.327    21.441     7.583
    36   7  N       2.775    -0.153    24.297     7.321
    37   6  C       2.756     0.327    21.441     7.583
    38   7  N       2.775    -0.153    24.295     7.321
    39   8  O       0.858    -0.398    21.632     6.236
    40   8  O       0.858    -0.398    21.631     6.236
    41   7  N       2.775    -0.153    24.295     7.321
    42   6  C       3.806     0.107    18.819     6.176
    43   6  C       3.806     0.107    18.819     6.176
    44   7  N       2.775    -0.153    24.295     7.321
    45   6  C       2.756     0.327    21.441     7.583
    46   7  N       2.775    -0.153    24.295     7.321
    47   6  C       2.756     0.327    21.441     7.583
    48   7  N       2.775    -0.153    24.295     7.321
    49   8  O       0.858    -0.398    21.632     6.236
    50   8  O       0.858    -0.398    21.632     6.236
    51   6  C       3.683     0.073    19.556     6.332
    52   6  C       3.683     0.073    19.556     6.332
    53   6  C       3.683     0.073    19.556     6.332
    54   6  C       3.683     0.073    19.556     6.332
    55   7  N       2.775    -0.153    24.295     7.321
    56   6  C       3.806     0.107    18.819     6.176
    57   6  C       3.806     0.107    18.819     6.176
    58   7  N       2.775    -0.153    24.296     7.321
    59   6  C       2.756     0.327    21.441     7.583
    60   7  N       2.775    -0.153    24.295     7.321
    61   6  C       2.756     0.327    21.441     7.583
    62   7  N       2.775    -0.153    24.295     7.321
    63   8  O       0.858    -0.398    21.632     6.236
    64   8  O       0.858    -0.398    21.632     6.236
    65   6  C       3.683     0.073    19.556     6.332
    66   6  C       3.683     0.073    19.556     6.332
    67   6  C       3.683     0.073    19.556     6.332
    68   6  C       3.683     0.073    19.556     6.332
    69   6  C       3.683     0.073    19.556     6.332
    70   6  C       3.683     0.073    19.556     6.332
    71   6  C       3.683     0.073    19.556     6.332
    72   6  C       3.683     0.073    19.556     6.332
    73   7  N       2.775    -0.153    24.296     7.321
    74   6  C       3.806     0.107    18.819     6.176
    75   6  C       3.806     0.107    18.819     6.176
    76   7  N       2.775    -0.153    24.295     7.321
    77   6  C       2.756     0.327    21.441     7.583
    78   7  N       2.775    -0.153    24.297     7.321
    79   6  C       2.756     0.327    21.441     7.583
    80   7  N       2.775    -0.153    24.295     7.321
    81   8  O       0.858    -0.398    21.632     6.236
    82   8  O       0.858    -0.398    21.631     6.236
    83   6  C       3.683     0.073    19.556     6.332
    84   6  C       3.683     0.073    19.556     6.332
    85   1  H       0.922     0.034     2.535     2.490
    86   1  H       0.922     0.034     2.535     2.490
    87   1  H       0.922     0.034     2.535     2.490
    88   1  H       0.922     0.034     2.535     2.490
    89   1  H       0.922     0.034     2.535     2.490
    90   1  H       0.922     0.034     2.535     2.490
    91   1  H       0.922     0.034     2.534     2.490
    92   1  H       0.922     0.034     2.535     2.490
    93   1  H       0.922     0.034     2.535     2.490
    94   1  H       0.922     0.034     2.535     2.490
    95   1  H       0.923     0.037     2.491     2.468
    96   1  H       0.923     0.125     1.577     1.964
    97   1  H       0.923     0.124     1.578     1.964
    98   1  H       0.923     0.037     2.488     2.467
    99   1  H       0.923     0.125     1.577     1.964
   100   1  H       0.923     0.037     2.491     2.468
   101   1  H       0.923     0.124     1.578     1.964
   102   1  H       0.923     0.037     2.488     2.467
   103   1  H       0.922     0.034     2.535     2.490
   104   1  H       0.922     0.034     2.535     2.490
   105   1  H       0.923     0.125     1.577     1.964
   106   1  H       0.923     0.037     2.490     2.468
   107   1  H       0.923     0.125     1.577     1.964
   108   1  H       0.923     0.037     2.490     2.468
   109   1  H       0.923     0.124     1.578     1.964
   110   1  H       0.923     0.037     2.489     2.467
   111   1  H       0.923     0.124     1.578     1.964
   112   1  H       0.923     0.037     2.489     2.467
   113   1  H       0.923     0.125     1.577     1.964
   114   1  H       0.923     0.037     2.490     2.468
   115   1  H       0.923     0.125     1.577     1.964
   116   1  H       0.923     0.037     2.490     2.468
   117   1  H       0.923     0.125     1.577     1.964
   118   1  H       0.923     0.037     2.490     2.468
   119   1  H       0.923     0.037     2.490     2.468
   120   1  H       0.923     0.125     1.577     1.964
   121   1  H       0.922     0.034     2.535     2.490
   122   1  H       0.922     0.034     2.535     2.490
   123   1  H       0.923     0.124     1.578     1.965
   124   1  H       0.923     0.037     2.487     2.466
   125   1  H       0.923     0.037     2.487     2.466
   126   1  H       0.923     0.124     1.578     1.965

 Mol. C6AA /au·bohr⁶  :     204015.960666
 Mol. C8AA /au·bohr⁸  :    4667790.811644
 Mol. α(0) /au        :        670.445863


Wiberg/Mayer (AO) data.
largest (>0.10) Wiberg bond orders for each atom

 ---------------------------------------------------------------------------
     #   Z sym  total        # sym  WBO       # sym  WBO       # sym  WBO
 ---------------------------------------------------------------------------
     1   7  N   3.396 --     5  C   1.099    65  C   0.991     2  C   0.991
                             9  O   0.146
     2   6  C   3.976 --     6  N   0.991     1  N   0.991     3  C   0.953
                            85  H   0.947
     3   6  C   3.976 --     4  N   0.991     8  N   0.991     2  C   0.953
                            86  H   0.947
     4   7  N   3.396 --     5  C   1.099    54  C   0.991     3  C   0.991
                             9  O   0.146
     5   6  C   3.959 --     9  O   1.690     4  N   1.099     1  N   1.099
     6   7  N   3.396 --     7  C   1.099    66  C   0.991     2  C   0.991
                            10  O   0.146
     7   6  C   3.959 --    10  O   1.690     8  N   1.099     6  N   1.099
     8   7  N   3.396 --     7  C   1.099    52  C   0.991     3  C   0.991
                            10  O   0.146
     9   8  O   2.052 --     5  C   1.690     4  N   0.146     1  N   0.146
    10   8  O   2.052 --     7  C   1.690     8  N   0.146     6  N   0.146
    11   7  N   3.396 --    15  C   1.099    54  C   0.991    12  C   0.991
                            19  O   0.146
    12   6  C   3.976 --    11  N   0.991    16  N   0.991    13  C   0.953
                            87  H   0.947
    13   6  C   3.976 --    18  N   0.991    14  N   0.991    12  C   0.953
                            88  H   0.947
    14   7  N   3.396 --    15  C   1.099    69  C   0.991    13  C   0.991
                            19  O   0.146
    15   6  C   3.959 --    19  O   1.690    11  N   1.099    14  N   1.099
    16   7  N   3.396 --    17  C   1.099    52  C   0.991    12  C   0.991
                            20  O   0.146
    17   6  C   3.959 --    20  O   1.690    16  N   1.099    18  N   1.099
    18   7  N   3.396 --    17  C   1.099    70  C   0.991    13  C   0.991
                            20  O   0.146
    19   8  O   2.052 --    15  C   1.690    11  N   0.146    14  N   0.146
    20   8  O   2.052 --    17  C   1.690    16  N   0.146    18  N   0.146
    21   7  N   3.396 --    25  C   1.099    68  C   0.991    22  C   0.991
                            29  O   0.146
    22   6  C   3.976 --    21  N   0.991    26  N   0.991    23  C   0.953
                            89  H   0.947
    23   6  C   3.976 --    24  N   0.991    28  N   0.991    22  C   0.953
                            90  H   0.947
    24   7  N   3.396 --    25  C   1.099    51  C   0.991    23  C   0.991
                            29  O   0.146
    25   6  C   3.959 --    29  O   1.690    21  N   1.099    24  N   1.099
    26   7  N   3.396 --    27  C   1.099    67  C   0.991    22  C   0.991
                            30  O   0.146
    27   6  C   3.959 --    30  O   1.690    26  N   1.099    28  N   1.099
    28   7  N   3.396 --    27  C   1.099    53  C   0.991    23  C   0.991
                            30  O   0.146
    29   8  O   2.052 --    25  C   1.690    21  N   0.146    24  N   0.146
    30   8  O   2.052 --    27  C   1.690    26  N   0.146    28  N   0.146
    31   7  N   3.396 --    35  C   1.099    84  C   0.991    32  C   0.991
                            39  O   0.146
    32   6  C   3.976 --    31  N   0.991    36  N   0.991    33  C   0.953
                            91  H   0.947
    33   6  C   3.976 --    38  N   0.991    34  N   0.991    32  C   0.953
                            92  H   0.947
    34   7  N   3.396 --    35  C   1.099    71  C   0.991    33  C   0.991
                            39  O   0.146
    35   6  C   3.959 --    39  O   1.690    31  N   1.099    34  N   1.099
    36   7  N   3.396 --    37  C   1.099    83  C   0.991    32  C   0.991
                            40  O   0.146
    37   6  C   3.959 --    40  O   1.690    36  N   1.099    38  N   1.099
    38   7  N   3.396 --    37  C   1.099    72  C   0.991    33  C   0.991
                            40  O   0.146
    39   8  O   2.052 --    35  C   1.690    31  N   0.146    34  N   0.146
    40   8  O   2.052 --    37  C   1.690    36  N   0.146    38  N   0.146
    41   7  N   3.396 --    45  C   1.099    69  C   0.991    42  C   0.991
                            49  O   0.146
    42   6  C   3.976 --    41  N   0.991    46  N   0.991    43  C   0.953
                            93  H   0.947
    43   6  C   3.976 --    48  N   0.991    44  N   0.991    42  C   0.953
                            94  H   0.947
    44   7  N   3.396 --    45  C   1.099    71  C   0.991    43  C   0.991
                            49  O   0.146
    45   6  C   3.959 --    49  O   1.690    41  N   1.099    44  N   1.099
    46   7  N   3.396 --    47  C   1.099    70  C   0.991    42  C   0.991
                            50  O   0.146
    47   6  C   3.959 --    50  O   1.690    48  N   1.099    46  N   1.099
    48   7  N   3.396 --    47  C   1.099    72  C   0.991    43  C   0.991
                            50  O   0.146
    49   8  O   2.052 --    45  C   1.690    41  N   0.146    44  N   0.146
    50   8  O   2.052 --    47  C   1.690    48  N   0.146    46  N   0.146
    51   6  C   3.948 --    24  N   0.991    80  N   0.991    95  H   0.956
                            96  H   0.942
    52   6  C   3.948 --    16  N   0.991     8  N   0.991    98  H   0.956
                            97  H   0.942
    53   6  C   3.948 --    76  N   0.991    28  N   0.991   100  H   0.956
                            99  H   0.942
    54   6  C   3.948 --    11  N   0.991     4  N   0.991   102  H   0.956
                           101  H   0.942
    55   7  N   3.396 --    59  C   1.099    65  C   0.991    56  C   0.991
                            63  O   0.146
    56   6  C   3.976 --    60  N   0.991    55  N   0.991    57  C   0.953
                           103  H   0.947
    57   6  C   3.976 --    58  N   0.991    62  N   0.991    56  C   0.953
                           104  H   0.947
    58   7  N   3.396 --    59  C   1.099    68  C   0.991    57  C   0.991
                            63  O   0.146
    59   6  C   3.959 --    63  O   1.690    55  N   1.099    58  N   1.099
    60   7  N   3.396 --    61  C   1.099    66  C   0.991    56  C   0.991
                            64  O   0.146
    61   6  C   3.959 --    64  O   1.690    62  N   1.099    60  N   1.099
    62   7  N   3.396 --    61  C   1.099    67  C   0.991    57  C   0.991
                            64  O   0.146
    63   8  O   2.052 --    59  C   1.690    55  N   0.146    58  N   0.146
    64   8  O   2.052 --    61  C   1.690    62  N   0.146    60  N   0.146
    65   6  C   3.948 --    55  N   0.991     1  N   0.991   106  H   0.956
                           105  H   0.942
    66   6  C   3.948 --     6  N   0.991    60  N   0.991   108  H   0.956
                           107  H   0.942
    67   6  C   3.948 --    62  N   0.991    26  N   0.991   110  H   0.956
                           109  H   0.942
    68   6  C   3.948 --    58  N   0.991    21  N   0.991   112  H   0.956
                           111  H   0.942
    69   6  C   3.948 --    14  N   0.991    41  N   0.991   114  H   0.956
                           113  H   0.942
    70   6  C   3.948 --    18  N   0.991    46  N   0.991   116  H   0.956
                           115  H   0.942
    71   6  C   3.948 --    34  N   0.991    44  N   0.991   118  H   0.956
                           117  H   0.942
    72   6  C   3.948 --    38  N   0.991    48  N   0.991   119  H   0.956
                           120  H   0.942
    73   7  N   3.396 --    77  C   1.099    83  C   0.991    74  C   0.991
                            81  O   0.146
    74   6  C   3.976 --    73  N   0.991    78  N   0.991    75  C   0.953
                           121  H   0.947
    75   6  C   3.976 --    80  N   0.991    76  N   0.991    74  C   0.953
                           122  H   0.947
    76   7  N   3.396 --    77  C   1.099    53  C   0.991    75  C   0.991
                            81  O   0.146
    77   6  C   3.959 --    81  O   1.690    73  N   1.099    76  N   1.099
    78   7  N   3.396 --    79  C   1.099    84  C   0.991    74  C   0.991
                            82  O   0.146
    79   6  C   3.959 --    82  O   1.690    78  N   1.099    80  N   1.099
    80   7  N   3.396 --    79  C   1.099    51  C   0.991    75  C   0.991
                            82  O   0.146
    81   8  O   2.052 --    77  C   1.690    73  N   0.146    76  N   0.146
    82   8  O   2.052 --    79  C   1.690    78  N   0.146    80  N   0.146
    83   6  C   3.948 --    73  N   0.991    36  N   0.991   124  H   0.956
                           123  H   0.942
    84   6  C   3.948 --    31  N   0.991    78  N   0.991   125  H   0.956
                           126  H   0.942
    85   1  H   0.999 --     2  C   0.947
    86   1  H   0.999 --     3  C   0.947
    87   1  H   0.999 --    12  C   0.947
    88   1  H   0.999 --    13  C   0.947
    89   1  H   0.999 --    22  C   0.947
    90   1  H   0.999 --    23  C   0.947
    91   1  H   0.999 --    32  C   0.947
    92   1  H   0.999 --    33  C   0.947
    93   1  H   0.999 --    42  C   0.947
    94   1  H   0.999 --    43  C   0.947
    95   1  H   0.998 --    51  C   0.956
    96   1  H   0.984 --    51  C   0.942
    97   1  H   0.984 --    52  C   0.942
    98   1  H   0.998 --    52  C   0.956
    99   1  H   0.984 --    53  C   0.942
   100   1  H   0.998 --    53  C   0.956
   101   1  H   0.984 --    54  C   0.942
   102   1  H   0.998 --    54  C   0.956
   103   1  H   0.999 --    56  C   0.947
   104   1  H   0.999 --    57  C   0.947
   105   1  H   0.984 --    65  C   0.942
   106   1  H   0.998 --    65  C   0.956
   107   1  H   0.984 --    66  C   0.942
   108   1  H   0.998 --    66  C   0.956
   109   1  H   0.984 --    67  C   0.942
   110   1  H   0.998 --    67  C   0.956
   111   1  H   0.984 --    68  C   0.942
   112   1  H   0.998 --    68  C   0.956
   113   1  H   0.984 --    69  C   0.942
   114   1  H   0.998 --    69  C   0.956
   115   1  H   0.984 --    70  C   0.942
   116   1  H   0.998 --    70  C   0.956
   117   1  H   0.984 --    71  C   0.942
   118   1  H   0.998 --    71  C   0.956
   119   1  H   0.998 --    72  C   0.956
   120   1  H   0.984 --    72  C   0.942
   121   1  H   0.999 --    74  C   0.947
   122   1  H   0.999 --    75  C   0.947
   123   1  H   0.984 --    83  C   0.942
   124   1  H   0.998 --    83  C   0.956
   125   1  H   0.998 --    84  C   0.956
   126   1  H   0.984 --    84  C   0.942
 ---------------------------------------------------------------------------

Topologies differ in total number of bonds
Writing topology from bond orders to xtbtopo.mol

molecular dipole:
                 x           y           z       tot (Debye)
 q only:        0.000       0.000       0.000
   full:        0.000       0.000       0.000       0.000
molecular quadrupole (traceless):
                xx          xy          yy          xz          yz          zz
 q only:       95.106      -0.011      94.991      -0.052       0.025    -190.097
  q+dip:      127.173      -0.002     127.183      -0.069       0.034    -254.356
   full:      127.759      -0.002     127.766      -0.070       0.034    -255.525

           -------------------------------------------------
          |                Geometry Summary                 |
           -------------------------------------------------

      molecular mass/u    :     1162.9637781
   center of mass at/Å    :        0.0000075       0.0000550       0.0000313
  moments of inertia/u·Å² :        0.1962322E+05   0.1967016E+05   0.3124247E+05
rotational constants/cm⁻¹ :        0.8590655E-03   0.8570156E-03   0.5395743E-03

 * 140 selected distances

     #   Z          #   Z                                           value/Å
     1   7  N       2   6  C                                      1.4360330
     3   6  C       4   7  N                                      1.4359984
     1   7  N       5   6  C                                      1.3804197
     4   7  N       5   6  C                                      1.3803990
     2   6  C       6   7  N                                      1.4360164
     6   7  N       7   6  C                                      1.3804076
     3   6  C       8   7  N                                      1.4360143
     7   6  C       8   7  N                                      1.3804076
     5   6  C       9   8  O                                      1.1960522
     7   6  C      10   8  O                                      1.1960530
    11   7  N      12   6  C                                      1.4360053
    13   6  C      14   7  N                                      1.4360333
    11   7  N      15   6  C                                      1.3804002
    14   7  N      15   6  C                                      1.3804210
    12   6  C      16   7  N                                      1.4360063
    16   7  N      17   6  C                                      1.3804008
    13   6  C      18   7  N                                      1.4360239
    17   6  C      18   7  N                                      1.3804196
    15   6  C      19   8  O                                      1.1960606
    17   6  C      20   8  O                                      1.1960625
    21   7  N      22   6  C                                      1.4360017
    23   6  C      24   7  N                                      1.4360178
    21   7  N      25   6  C                                      1.3804081
    24   7  N      25   6  C                                      1.3804200
    22   6  C      26   7  N                                      1.4360036
    26   7  N      27   6  C                                      1.3804185
    23   6  C      28   7  N                                      1.4360251
    27   6  C      28   7  N                                      1.3804288
    25   6  C      29   8  O                                      1.1960652
    27   6  C      30   8  O                                      1.1960610
    31   7  N      32   6  C                                      1.4359913
    33   6  C      34   7  N                                      1.4360384
    31   7  N      35   6  C                                      1.3803893
    34   7  N      35   6  C                                      1.3804209
    32   6  C      36   7  N                                      1.4360120
    36   7  N      37   6  C                                      1.3804006
    33   6  C      38   7  N                                      1.4360286
    37   6  C      38   7  N                                      1.3804168
    35   6  C      39   8  O                                      1.1960673
[...]
 113: 11.56 114: 11.90 115: 11.90 116: 12.60 117: 12.60 118: 11.78 119: 11.78 120: 12.52
 121: 12.52 122: 12.59 123: 12.59 124: 12.42 125: 12.41 126: 12.54 127: 12.54 128: 12.24
 129: 12.24 130: 12.38 131: 12.76 132: 12.61 133: 12.61 134: 12.05 135: 12.05 136: 12.48
 137: 12.48 138: 11.84 139: 11.84 140: 12.67 141: 11.42 142: 11.42 143: 11.67 144: 11.68
 145: 11.61 146: 11.61 147: 11.75 148: 11.74 149: 11.53 150: 11.54 151: 11.54 152: 11.99
 153: 11.66 154: 11.66 155: 11.42 156: 11.52 157: 11.52 158: 11.80 159: 11.80 160: 12.07
 161: 12.07 162:  8.99 163:  8.99 164:  8.03 165:  8.03 166:  6.94 167:  7.13 168:  7.13
 169:  8.05 170:  8.05 171:  6.65 172:  6.65 173:  8.05 174:  8.04 175:  9.57 176:  9.57
 177:  7.89 178:  7.89 179:  7.95 180:  7.95 181:  7.67 182: 10.45 183: 11.28 184: 11.28
 185:  6.36 186: 11.04 187: 11.04 188:  7.25 189:  7.25 190:  8.36 191:  8.36 192:  9.28
 193:  9.28 194: 10.84 195: 10.84 196: 10.77 197:  9.67 198:  9.56 199:  9.56 200: 10.49
 201: 10.49 202: 10.12 203: 10.12 204:  9.76 205:  9.76 206: 10.01 207: 10.01 208:  7.69
 209:  9.35 210:  9.35 211:  8.88 212:  6.43 213:  6.43 214:  7.61 215:  5.93 216:  5.92
 217:  5.22 218:  5.22 219:  6.98 220:  6.99 221:  5.66 222:  5.66 223:  5.73 224:  5.74
 225: 12.30 226: 11.75 227: 11.75 228: 10.34 229: 10.34 230: 10.46 231: 10.46 232: 11.16
 233: 11.16 234: 10.62 235: 12.47 236: 12.47 237: 12.44 238: 12.43 239:  8.72 240: 12.27
 241: 12.27 242: 11.98 243: 11.98 244:  9.35 245:  9.35 246:  3.03 247:  3.03 248:  2.76
 249:  2.76 250:  2.99 251:  3.02 252: 12.68 253: 12.64 254:  9.67 255:  9.68 256:  3.07
 257: 12.60 258: 11.07 259: 11.08 260: 11.40 261: 11.40 262: 10.99 263: 10.99 264: 12.13
 265: 12.13 266: 12.77 267: 12.06 268: 11.46 269: 11.46 270:  3.00 271:  4.13 272:  3.14
 273:  3.14 274:  6.04 275:  6.04 276:  3.17 277:  3.17 278:  3.94 279:  3.94 280:  3.13
 281:  3.13 282:  4.21 283:  4.21 284:  5.14 285:  7.07 286:  7.06 287:  5.39 288:  5.39
 289:  5.84 290:  6.46 291:  6.45 292:  5.85 293:  5.99 294:  5.99 295:  6.30 296:  7.73
 297:  7.73 298:  4.72 299:  4.72 300:  3.67 301:  3.70 302:  3.09 303:  3.14 304:  9.82
 305:  9.82 306:  1.87 307: 10.75 308: 10.67 309:  4.88 310:  3.85 311:  3.90 312:  1.90
 313:  1.87 314:  1.87 315:  1.86 316:  1.88 317:  2.95 318:  3.01 319:  3.20 320:  3.20
 321:  3.80 322:  3.77 323: 13.31 324: 13.31 325: 13.31 326: 13.31 327: 13.29 328: 13.29
 329: 13.29 330: 13.29 331: 13.30 332: 13.30 333: 13.29 334: 13.29 335: 13.29 336: 13.29
 337:  1.70 338:  1.70 339:  1.70 340:  1.70 341:  1.70 342:  1.70 343:  1.70 344:  1.72
 345:  1.72 346:  1.72 347:  1.72 348:  1.72 349:  1.72 350:  1.73 351:  1.66 352:  1.66
 353:  1.65 354:  1.65 355:  1.65 356:  1.65 357:  1.65 358:  1.65 359:  1.65 360:  1.65
 361:  1.65 362:  1.65 363:  1.65 364:  1.65 365:  1.76 366:  1.76 367:  1.77 368:  1.77
 369:  1.76 370:  1.76 371:  1.77 372:  1.77 373:  1.76 374:  1.76 375:  1.77 376:  1.77
 377:  1.77 378:  1.77
 IR intensities (km·mol⁻¹)
   1:  0.02   2:  0.10   3:  0.01   4:  0.01   5:  0.00   6:  0.06   7:  0.01   8:  0.05
   9:  0.00  10:  0.00  11:  0.02  12:  0.01  13:  0.01  14:  0.00  15:  0.00  16:  0.00
  17:  0.00  18:  0.00  19:  0.00  20:  0.00  21:  0.00  22:  0.00  23: 21.96  24:  0.06
  25:  0.01  26:  0.00  27: 23.35  28: 23.70  29:  0.00  30:  0.02  31:  0.00  32:  0.00
  33:  0.00  34:  0.00  35:  0.00  36:  0.00  37:  0.00  38:  0.00  39:  0.00  40:  0.00
  41:  0.00  42:  0.00  43:  0.00  44:  0.00  45:  0.00  46:  0.00  47:  1.79  48:  1.80
  49:  0.00  50:  0.00  51:  0.01  52:  0.00  53:  1.07  54:  1.07  55:  0.29  56:  0.00
  57:  0.00  58:  0.00  59:  0.00  60:  0.00  61:  0.00  62:  0.00  63:  0.00  64:  3.44
  65:  3.48  66:  0.18  67:  0.04  68:  0.03  69:  1.27  70:  0.01  71:  0.00  72:  0.00
  73:  0.08  74:  0.00  75:  0.00  76:  0.01  77:  0.00  78:  2.38  79:160.07  80:158.05
  81:  0.02  82:  0.01  83:  0.00  84:  0.00  85:  0.00  86: 38.78  87: 38.19  88:  0.00
  89:  0.00  90:  0.01  91:  0.00  92:  0.00  93:  0.00  94:  0.00  95:  0.00  96:  0.00
  97:  0.00  98:  0.01  99:  0.08 100:  0.04 101: 30.40 102: 30.53 103:  0.00 104:  0.00
 105:  0.00 106:  0.00 107:  0.00 108:  0.02 109:  0.01 110:  0.00 111:  0.00 112: 23.81
 113:  0.00 114:  0.00 115:  0.04 116:  0.01 117:  0.02 118:  0.33 119:  0.23 120:  0.00
 121:  0.01 122:  0.09 123:  0.04 124:  0.01 125:  0.01 126:  0.00 127:  0.00 128:  0.01
 129:  0.00 130:  0.01 131:270.73 132:221.44 133:224.83 134:  0.10 135:  0.02 136:  0.00
 137:  0.01 138:  0.07 139:  0.07 140:  0.00 141:  0.00 142:  0.00 143:  0.03 144:  0.02
 145:  0.01 146:  0.01 147:737.20 148:737.76 149:  0.00 150:  0.14 151:  0.28 152:  0.02
 153: 26.95 154: 26.48 155: 20.07 156:  0.00 157:  0.00 158:  0.00 159:  0.00 160:  0.00
 161:  0.00 162:  0.00 163:  0.00 164:  0.00 165:  0.01 166:  0.01 167:  7.11 168:  7.05
 169:  0.00 170:  0.00 171:  0.00 172:  0.00 173:  0.02 174:  0.00 175:  2.79 176:  2.85
 177:  0.00 178:  0.00 179:  0.06 180:  0.01 181:357.85 182:  0.00 183:  0.00 184:  0.00
 185:  0.00 186:  0.01 187:  0.01 188:135.11 189:134.68 190:  0.00 191:  0.00 192:  0.00
 193:  0.00 194:  0.00 195:  0.00 196:  0.00 197:  0.00 198:  0.00 199:  0.00 200:  0.00
 201:  0.00 202:  0.00 203:  0.00 204:  0.00 205:  0.00 206:  0.00 207:  0.00 208:  0.00
 209:500.64 210:501.59 211:  0.00 212:****** 213:****** 214:  0.02 215:  0.01 216:  0.03
 217:  0.01 218:  0.03 219:662.88 220:659.90 221:  0.04 222:  0.02 223:  0.01 224:  0.01
 225:  0.00 226:  0.00 227:  0.00 228:  0.00 229:  0.00 230:  0.02 231:  0.00 232:  0.02
 233:  0.09 234:996.41 235:  0.00 236:  0.01 237:  0.00 238:  0.02 239:  0.00 240:  0.00
 241:  0.01 242:  0.14 243:  0.03 244:****** 245:****** 246:  0.01 247:  0.01 248:  0.00
 249:  0.00 250:  0.32 251:  3.08 252:516.06 253:509.35 254:  0.35 255:  0.07 256:  0.00
 257:  0.01 258:  0.00 259:  0.01 260:  0.03 261:  0.03 262:  0.00 263:  0.01 264:  0.01
 265:  0.01 266:560.68 267:  0.00 268:260.18 269:258.86 270:  0.00 271:  0.02 272:  0.00
 273:  0.00 274:  0.31 275:  0.34 276:  0.00 277:  0.00 278:247.89 279:249.59 280:  0.00
 281:  0.00 282:  0.02 283:  0.03 284: 64.14 285:  0.01 286:  0.01 287:  0.00 288:  0.00
 289:  0.00 290:  0.01 291:  0.01 292:  0.00 293:  0.00 294:  0.00 295:  0.01 296:******
 297:****** 298:  0.00 299:  0.03 300:  0.02 301:  0.00 302:  0.00 303:  0.00 304:  0.04
 305:  0.16 306:135.43 307:  0.06 308:  0.00 309:  0.00 310:  0.01 311:  0.00 312: 16.13
 313:  9.33 314: 11.15 315:  2.99 316:  0.05 317:  0.07 318:  0.14 319:  0.04 320:  0.02
 321:  0.01 322:  0.00 323:  0.04 324:  0.00 325:  0.01 326:  0.01 327:  0.05 328:  0.20
 329:  0.07 330:  0.07 331:  0.00 332:  0.00 333:380.63 334:377.51 335:****** 336:  0.00
 337:  0.01 338: 19.58 339: 19.48 340:  0.08 341:  0.09 342:  0.00 343:  0.00 344:  0.28
 345:  0.18 346:  0.92 347:  1.11 348:439.54 349:438.81 350:  0.02 351:  3.37 352:  0.03
 353:  0.61 354:  5.41 355:  2.47 356: 21.48 357: 28.98 358: 25.69 359:  5.47 360: 20.02
 361: 58.58 362:430.36 363:432.32 364:  1.19 365:  0.00 366:  0.00 367:  0.00 368:  0.00
 369:  0.00 370:  0.01 371:  0.00 372:  0.00 373:  0.00 374:  0.00 375: 29.79 376:  1.05
 377:  1.06 378:  0.00
 Raman intensities (amu)
   1:  0.00   2:  0.00   3:  0.00   4:  0.00   5:  0.00   6:  0.00   7:  0.00   8:  0.00
   9:  0.00  10:  0.00  11:  0.00  12:  0.00  13:  0.00  14:  0.00  15:  0.00  16:  0.00
  17:  0.00  18:  0.00  19:  0.00  20:  0.00  21:  0.00  22:  0.00  23:  0.00  24:  0.00
  25:  0.00  26:  0.00  27:  0.00  28:  0.00  29:  0.00  30:  0.00  31:  0.00  32:  0.00
  33:  0.00  34:  0.00  35:  0.00  36:  0.00  37:  0.00  38:  0.00  39:  0.00  40:  0.00
  41:  0.00  42:  0.00  43:  0.00  44:  0.00  45:  0.00  46:  0.00  47:  0.00  48:  0.00
  49:  0.00  50:  0.00  51:  0.00  52:  0.00  53:  0.00  54:  0.00  55:  0.00  56:  0.00
  57:  0.00  58:  0.00  59:  0.00  60:  0.00  61:  0.00  62:  0.00  63:  0.00  64:  0.00
  65:  0.00  66:  0.00  67:  0.00  68:  0.00  69:  0.00  70:  0.00  71:  0.00  72:  0.00
  73:  0.00  74:  0.00  75:  0.00  76:  0.00  77:  0.00  78:  0.00  79:  0.00  80:  0.00
  81:  0.00  82:  0.00  83:  0.00  84:  0.00  85:  0.00  86:  0.00  87:  0.00  88:  0.00
  89:  0.00  90:  0.00  91:  0.00  92:  0.00  93:  0.00  94:  0.00  95:  0.00  96:  0.00
  97:  0.00  98:  0.00  99:  0.00 100:  0.00 101:  0.00 102:  0.00 103:  0.00 104:  0.00
 105:  0.00 106:  0.00 107:  0.00 108:  0.00 109:  0.00 110:  0.00 111:  0.00 112:  0.00
 113:  0.00 114:  0.00 115:  0.00 116:  0.00 117:  0.00 118:  0.00 119:  0.00 120:  0.00
 121:  0.00 122:  0.00 123:  0.00 124:  0.00 125:  0.00 126:  0.00 127:  0.00 128:  0.00
 129:  0.00 130:  0.00 131:  0.00 132:  0.00 133:  0.00 134:  0.00 135:  0.00 136:  0.00
 137:  0.00 138:  0.00 139:  0.00 140:  0.00 141:  0.00 142:  0.00 143:  0.00 144:  0.00
 145:  0.00 146:  0.00 147:  0.00 148:  0.00 149:  0.00 150:  0.00 151:  0.00 152:  0.00
 153:  0.00 154:  0.00 155:  0.00 156:  0.00 157:  0.00 158:  0.00 159:  0.00 160:  0.00
 161:  0.00 162:  0.00 163:  0.00 164:  0.00 165:  0.00 166:  0.00 167:  0.00 168:  0.00
 169:  0.00 170:  0.00 171:  0.00 172:  0.00 173:  0.00 174:  0.00 175:  0.00 176:  0.00
 177:  0.00 178:  0.00 179:  0.00 180:  0.00 181:  0.00 182:  0.00 183:  0.00 184:  0.00
 185:  0.00 186:  0.00 187:  0.00 188:  0.00 189:  0.00 190:  0.00 191:  0.00 192:  0.00
 193:  0.00 194:  0.00 195:  0.00 196:  0.00 197:  0.00 198:  0.00 199:  0.00 200:  0.00
 201:  0.00 202:  0.00 203:  0.00 204:  0.00 205:  0.00 206:  0.00 207:  0.00 208:  0.00
 209:  0.00 210:  0.00 211:  0.00 212:  0.00 213:  0.00 214:  0.00 215:  0.00 216:  0.00
 217:  0.00 218:  0.00 219:  0.00 220:  0.00 221:  0.00 222:  0.00 223:  0.00 224:  0.00
 225:  0.00 226:  0.00 227:  0.00 228:  0.00 229:  0.00 230:  0.00 231:  0.00 232:  0.00
 233:  0.00 234:  0.00 235:  0.00 236:  0.00 237:  0.00 238:  0.00 239:  0.00 240:  0.00
 241:  0.00 242:  0.00 243:  0.00 244:  0.00 245:  0.00 246:  0.00 247:  0.00 248:  0.00
 249:  0.00 250:  0.00 251:  0.00 252:  0.00 253:  0.00 254:  0.00 255:  0.00 256:  0.00
 257:  0.00 258:  0.00 259:  0.00 260:  0.00 261:  0.00 262:  0.00 263:  0.00 264:  0.00
 265:  0.00 266:  0.00 267:  0.00 268:  0.00 269:  0.00 270:  0.00 271:  0.00 272:  0.00
 273:  0.00 274:  0.00 275:  0.00 276:  0.00 277:  0.00 278:  0.00 279:  0.00 280:  0.00
 281:  0.00 282:  0.00 283:  0.00 284:  0.00 285:  0.00 286:  0.00 287:  0.00 288:  0.00
 289:  0.00 290:  0.00 291:  0.00 292:  0.00 293:  0.00 294:  0.00 295:  0.00 296:  0.00
 297:  0.00 298:  0.00 299:  0.00 300:  0.00 301:  0.00 302:  0.00 303:  0.00 304:  0.00
 305:  0.00 306:  0.00 307:  0.00 308:  0.00 309:  0.00 310:  0.00 311:  0.00 312:  0.00
 313:  0.00 314:  0.00 315:  0.00 316:  0.00 317:  0.00 318:  0.00 319:  0.00 320:  0.00
 321:  0.00 322:  0.00 323:  0.00 324:  0.00 325:  0.00 326:  0.00 327:  0.00 328:  0.00
 329:  0.00 330:  0.00 331:  0.00 332:  0.00 333:  0.00 334:  0.00 335:  0.00 336:  0.00
 337:  0.00 338:  0.00 339:  0.00 340:  0.00 341:  0.00 342:  0.00 343:  0.00 344:  0.00
 345:  0.00 346:  0.00 347:  0.00 348:  0.00 349:  0.00 350:  0.00 351:  0.00 352:  0.00
 353:  0.00 354:  0.00 355:  0.00 356:  0.00 357:  0.00 358:  0.00 359:  0.00 360:  0.00
 361:  0.00 362:  0.00 363:  0.00 364:  0.00 365:  0.00 366:  0.00 367:  0.00 368:  0.00
 369:  0.00 370:  0.00 371:  0.00 372:  0.00 373:  0.00 374:  0.00 375:  0.00 376:  0.00
 377:  0.00 378:  0.00
 output can be read by thermo (or use thermo option).
 writing <g98.out> molden fake output.
 recommended (thermochemical) frequency scaling factor: 1.0
           -------------------------------------------------
          |             Thermodynamic Functions             |
           -------------------------------------------------

Molecule has the following symmetry elements: (C7) 7*(C2) (S7) 8*(sigma) 
It seems to be the D7h point group
d7h symmetry found (for desy threshold:  0.10E+00) used in thermo

          ...................................................
          :                      SETUP                      :
          :.................................................:
          :  # frequencies                         372      :
          :  # imaginary freq.                       0      :
          :  linear?                             false      :
          :  only rotor calc.                    false      :
          :  symmetry                              d7h      :
          :  rotational number                      14      :
          :  scaling factor                  1.0000000      :
          :  rotor cutoff                   50.0000000 cm⁻¹ :
          :  imag. cutoff                  -20.0000000 cm⁻¹ :
          :.................................................:

    mode    ω/cm⁻¹     T·S(HO)/kcal·mol⁻¹    T·S(FR)/kcal·mol⁻¹   T·S(vib)
   ------------------------------------------------------------------------
       1     16.10    -2.10640 (  1.06%)    -1.39223 ( 98.94%)    -1.39983
       2     16.33    -2.09815 (  1.12%)    -1.38810 ( 98.88%)    -1.39608
       3     17.03    -2.07328 (  1.33%)    -1.37566 ( 98.67%)    -1.38492
       4     19.23    -2.00129 (  2.14%)    -1.33964 ( 97.86%)    -1.35380
       5     40.91    -1.55472 ( 30.95%)    -1.11599 ( 69.05%)    -1.25176
       6     40.91    -1.55467 ( 30.95%)    -1.11596 ( 69.05%)    -1.25176
       7     40.98    -1.55365 ( 31.10%)    -1.11545 ( 68.90%)    -1.25174
       8     41.13    -1.55147 ( 31.42%)    -1.11436 ( 68.58%)    -1.25169
       9     64.01    -1.29089 ( 72.87%)    -0.98338 ( 27.13%)    -1.20745
      10     64.11    -1.28991 ( 73.00%)    -0.98289 ( 27.00%)    -1.20701
      11     64.99    -1.28198 ( 74.05%)    -0.97889 ( 25.95%)    -1.20332
      12     65.23    -1.27974 ( 74.34%)    -0.97776 ( 25.66%)    -1.20225
      13     65.49    -1.27746 ( 74.64%)    -0.97662 ( 25.36%)    -1.20115
      14     65.62    -1.27628 ( 74.79%)    -0.97602 ( 25.21%)    -1.20058
      15     78.77    -1.16915 ( 86.03%)    -0.92191 ( 13.97%)    -1.13462
      16     78.86    -1.16850 ( 86.08%)    -0.92158 ( 13.92%)    -1.13414
      17     81.45    -1.14952 ( 87.57%)    -0.91198 ( 12.43%)    -1.11999
      18     86.19    -1.11649 ( 89.83%)    -0.89523 ( 10.17%)    -1.09398
      19     86.28    -1.11589 ( 89.86%)    -0.89493 ( 10.14%)    -1.09350
      20     87.24    -1.10942 ( 90.26%)    -0.89165 (  9.74%)    -1.08821
      21     88.58    -1.10050 ( 90.79%)    -0.88712 (  9.21%)    -1.08083
      22     88.62    -1.10027 ( 90.80%)    -0.88700 (  9.20%)    -1.08065
      23    108.40    -0.98312 ( 95.67%)    -0.82732 (  4.33%)    -0.97638
      24    108.43    -0.98294 ( 95.67%)    -0.82723 (  4.33%)    -0.97620
      25    124.60    -0.90273 ( 97.47%)    -0.78606 (  2.53%)    -0.89978
      26    130.29    -0.87709 ( 97.88%)    -0.77283 (  2.12%)    -0.87487
      27    130.51    -0.87610 ( 97.89%)    -0.77232 (  2.11%)    -0.87391
      28    131.84    -0.87030 ( 97.97%)    -0.76932 (  2.03%)    -0.86825
      29    132.03    -0.86950 ( 97.98%)    -0.76891 (  2.02%)    -0.86747
      30    140.18    -0.83524 ( 98.41%)    -0.75115 (  1.59%)    -0.83390
      31    140.47    -0.83406 ( 98.42%)    -0.75054 (  1.58%)    -0.83274
      32    141.86    -0.82845 ( 98.48%)    -0.74762 (  1.52%)    -0.82722
      33    142.29    -0.82674 ( 98.50%)    -0.74673 (  1.50%)    -0.82554
      34    143.07    -0.82359 ( 98.53%)    -0.74510 (  1.47%)    -0.82244
      35    143.67    -0.82122 ( 98.55%)    -0.74386 (  1.45%)    -0.82010
      36    165.20    -0.74221 ( 99.17%)    -0.70250 (  0.83%)    -0.74188
      37    165.43    -0.74144 ( 99.17%)    -0.70209 (  0.83%)    -0.74111
      38    168.63    -0.73066 ( 99.23%)    -0.69641 (  0.77%)    -0.73040
      39    168.79    -0.73016 ( 99.24%)    -0.69614 (  0.76%)    -0.72990
      40    170.38    -0.72489 ( 99.26%)    -0.69335 (  0.74%)    -0.72465
      41    172.77    -0.71709 ( 99.30%)    -0.68923 (  0.70%)    -0.71689
      42    172.82    -0.71693 ( 99.30%)    -0.68914 (  0.70%)    -0.71674
      43    192.05    -0.65829 ( 99.54%)    -0.65788 (  0.46%)    -0.65829
      44    193.51    -0.65411 ( 99.56%)    -0.65564 (  0.44%)    -0.65412
      45    219.87    -0.58443 ( 99.73%)    -0.61781 (  0.27%)    -0.58452
      46    219.95    -0.58422 ( 99.73%)    -0.61770 (  0.27%)    -0.58431
      47    221.76    -0.57979 ( 99.74%)    -0.61527 (  0.26%)    -0.57989
      48    222.07    -0.57906 ( 99.74%)    -0.61487 (  0.26%)    -0.57915
      49    224.71    -0.57270 ( 99.76%)    -0.61136 (  0.24%)    -0.57279
      50    242.47    -0.53211 ( 99.82%)    -0.58883 (  0.18%)    -0.53221
      51    242.70    -0.53160 ( 99.82%)    -0.58855 (  0.18%)    -0.53171
      52    243.22    -0.53047 ( 99.82%)    -0.58791 (  0.18%)    -0.53057
      53    243.43    -0.53002 ( 99.82%)    -0.58766 (  0.18%)    -0.53012
      54    279.46    -0.45825 ( 99.90%)    -0.54677 (  0.10%)    -0.45834
      55    279.56    -0.45806 ( 99.90%)    -0.54666 (  0.10%)    -0.45815
      56    280.79    -0.45583 ( 99.90%)    -0.54536 (  0.10%)    -0.45592
      57    280.79    -0.45582 ( 99.90%)    -0.54536 (  0.10%)    -0.45591
   ------------------------------------------------------------------------

   temp. (K)  partition function   enthalpy   heat capacity  entropy
                                   cal/mol     cal/K/mol   cal/K/mol   J/K/mol
 298.15  VIB  0.200E+28            38274.423    240.993    237.667
         ROT  0.189E+08              888.752      2.981     36.282
         INT  0.380E+35            39163.175    243.974    273.949
         TR   0.384E+29             1481.254      4.968     47.010
         TOT                       40644.4291   248.9422   320.9594  1342.8940

       T/K    H(0)-H(T)+PV         H(T)/Eh          T*S/Eh         G(T)/Eh
   ------------------------------------------------------------------------
    298.15    0.647710E-01    0.987418E+00    0.152498E+00    0.834919E+00
   ------------------------------------------------------------------------

         :::::::::::::::::::::::::::::::::::::::::::::::::::::
         ::                  THERMODYNAMIC                  ::
         :::::::::::::::::::::::::::::::::::::::::::::::::::::
         :: total free energy        -250.202265726644 Eh   ::
         ::.................................................::
         :: total energy             -251.037185193588 Eh   ::
         :: zero point energy           0.922646597907 Eh   ::
         :: G(RRHO) w/o ZPVE           -0.087727130962 Eh   ::
         :: G(RRHO) contrib.            0.834919466944 Eh   ::
         :::::::::::::::::::::::::::::::::::::::::::::::::::::

optimized geometry written to: xtbopt.pdb


           -------------------------------------------------
          | TOTAL ENERGY             -251.037185193588 Eh   |
          | TOTAL ENTHALPY           -250.049767575048 Eh   |
          | TOTAL FREE ENERGY        -250.202265726644 Eh   |
          | GRADIENT NORM               0.000096304628 Eh/α |
          | HOMO-LUMO GAP               5.460887865005 eV   |
           -------------------------------------------------

------------------------------------------------------------------------
 * finished run on 2023/06/23 at 06:46:53.033     
------------------------------------------------------------------------
 total:
 * wall-time:     0 d,  0 h,  1 min, 28.940 sec
 *  cpu-time:     0 d,  0 h, 11 min,  2.528 sec
 * ratio c/w:     7.449 speedup
 SCF:
 * wall-time:     0 d,  0 h,  0 min,  0.510 sec
 *  cpu-time:     0 d,  0 h,  0 min,  4.010 sec
 * ratio c/w:     7.860 speedup
 ANC optimizer:
 * wall-time:     0 d,  0 h,  0 min,  3.484 sec
 *  cpu-time:     0 d,  0 h,  0 min, 27.634 sec
 * ratio c/w:     7.931 speedup
 analytical hessian:
 * wall-time:     0 d,  0 h,  1 min, 24.262 sec
 *  cpu-time:     0 d,  0 h, 10 min, 28.717 sec
 * ratio c/w:     7.461 speedup

