126
 energy: -251.018151670678 gnorm: 0.172689569834 xtb: 6.6.0 (8843059)
 N           4.96300000000000       -1.59500000000000       -1.21500000000000
 C           5.69700000000000       -1.33400000000000       -0.00100000000000
 C           5.85000000000000        0.20900000000000       -0.00100000000000
 N           5.18300000000000        0.60900000000000       -1.21500000000000
 C           4.64400000000000       -0.45000000000000       -1.89700000000000
 N           4.96400000000000       -1.59500000000000        1.21300000000000
 C           4.64500000000000       -0.45100000000000        1.89500000000000
 N           5.18300000000000        0.60900000000000        1.21300000000000
 O           4.07600000000000       -0.39300000000000       -2.96700000000000
 O           4.07800000000000       -0.39400000000000        2.96500000000000
 N           4.34900000000000        2.88600000000000       -1.21400000000000
 C           4.59900000000000        3.62300000000000        0.00000000000000
 C           3.48300000000000        4.70000000000000        0.00000000000000
 N           2.75500000000000        4.42400000000000       -1.21300000000000
 C           3.25000000000000        3.34300000000000       -1.89400000000000
 N           4.34900000000000        2.88600000000000        1.21300000000000
 C           3.25100000000000        3.34200000000000        1.89400000000000
 N           2.75600000000000        4.42400000000000        1.21400000000000
 O           2.85100000000000        2.93000000000000       -2.96200000000000
 O           2.85200000000000        2.92900000000000        2.96200000000000
 N          -0.55800000000000       -5.18100000000000       -1.21400000000000
 C          -1.09700000000000       -5.74300000000000        0.00000000000000
 C          -2.56700000000000       -5.24900000000000        0.00000000000000
 N          -2.65800000000000       -4.47600000000000       -1.21400000000000
 C          -1.47000000000000       -4.41900000000000       -1.89500000000000
 N          -0.55800000000000       -5.18100000000000        1.21300000000000
 C          -1.47000000000000       -4.41800000000000        1.89500000000000
 N          -2.65800000000000       -4.47600000000000        1.21400000000000
 O          -1.28800000000000       -3.87600000000000       -2.96400000000000
 O          -1.28700000000000       -3.87500000000000        2.96300000000000
 N          -4.94000000000000        1.70100000000000       -1.21300000000000
 C          -5.36600000000000        2.35200000000000        0.00100000000000
 C          -4.55600000000000        3.67400000000000        0.00100000000000
 N          -3.78300000000000        3.59000000000000       -1.21300000000000
 C          -3.99100000000000        2.41900000000000       -1.89400000000000
 N          -4.93900000000000        1.70100000000000        1.21500000000000
 C          -3.99100000000000        2.41900000000000        1.89500000000000
 N          -3.78200000000000        3.59000000000000        1.21400000000000
 O          -3.50200000000000        2.12000000000000       -2.96200000000000
 O          -3.50100000000000        2.11900000000000        2.96300000000000
 N           0.45200000000000        5.18600000000000       -1.21300000000000
 C           0.03400000000000        5.84200000000000        0.00000000000000
 C          -1.50400000000000        5.64500000000000        0.00100000000000
 N          -1.74400000000000        4.90500000000000       -1.21300000000000
 C          -0.59100000000000        4.61600000000000       -1.89400000000000
 N           0.45300000000000        5.18500000000000        1.21400000000000
 C          -0.59000000000000        4.61500000000000        1.89500000000000
 N          -1.74400000000000        4.90400000000000        1.21400000000000
 O          -0.51800000000000        4.04900000000000       -2.96400000000000
 O          -0.51800000000000        4.04700000000000        2.96400000000000
 C          -3.89500000000000       -4.01000000000000       -1.77700000000000
 C           5.26300000000000        1.92900000000000        1.77500000000000
 C          -3.89500000000000       -4.01100000000000        1.77800000000000
 C           5.26200000000000        1.93000000000000       -1.77600000000000
 N           3.70300000000000       -3.66800000000000       -1.21500000000000
 C           3.80900000000000       -4.43900000000000       -0.00100000000000
 C           2.51000000000000       -5.28500000000000       -0.00100000000000
 N           1.84700000000000       -4.87600000000000       -1.21400000000000
 C           2.53800000000000       -3.90800000000000       -1.89500000000000
 N           3.70400000000000       -3.66800000000000        1.21200000000000
 C           2.54000000000000       -3.90800000000000        1.89300000000000
 N           1.84800000000000       -4.87600000000000        1.21300000000000
 O           2.22500000000000       -3.42700000000000       -2.96300000000000
 O           2.22700000000000       -3.42700000000000        2.96200000000000
 C           4.78300000000000       -2.90500000000000       -1.77800000000000
 C           4.78400000000000       -2.90500000000000        1.77600000000000
 C           0.71200000000000       -5.55200000000000        1.77500000000000
 C           0.71100000000000       -5.55300000000000       -1.77600000000000
 C           1.76900000000000        5.30500000000000       -1.77700000000000
 C           1.77000000000000        5.30500000000000        1.77700000000000
 C          -3.04900000000000        4.69000000000000       -1.77600000000000
 C          -3.04800000000000        4.68900000000000        1.77800000000000
 N          -5.17200000000000       -0.71300000000000        1.21500000000000
 C          -5.71600000000000       -1.26900000000000        0.00100000000000
 C          -5.17600000000000       -2.72300000000000        0.00100000000000
 N          -4.40000000000000       -2.78900000000000        1.21500000000000
 C          -4.38200000000000       -1.60100000000000        1.89700000000000
 N          -5.17200000000000       -0.71300000000000       -1.21300000000000
 C          -4.38200000000000       -1.60000000000000       -1.89500000000000
 N          -4.40000000000000       -2.78900000000000       -1.21300000000000
 O          -3.84800000000000       -1.40200000000000        2.96700000000000
 O          -3.84800000000000       -1.40200000000000       -2.96500000000000
 C          -5.58300000000000        0.54500000000000        1.77600000000000
 C          -5.58300000000000        0.54500000000000       -1.77400000000000
 H           6.63700000000000       -1.90300000000000       -0.00200000000000
 H           6.88400000000000        0.58000000000000       -0.00100000000000
 H           5.62700000000000        4.00900000000000        0.00000000000000
 H           3.83200000000000        5.74100000000000        0.00000000000000
 H          -0.96500000000000       -6.83300000000000        0.00000000000000
 H          -3.33000000000000       -6.03900000000000        0.00100000000000
 H          -6.45800000000000        2.46700000000000        0.00100000000000
 H          -5.15600000000000        4.59500000000000        0.00100000000000
 H           0.37600000000000        6.88500000000000        0.00100000000000
 H          -2.09900000000000        6.56800000000000        0.00100000000000
 H          -4.65300000000000       -4.79300000000000       -1.65900000000000
 H          -3.69600000000000       -3.80400000000000       -2.83500000000000
 H           4.99800000000000        1.83200000000000        2.83400000000000
 H           6.28500000000000        2.30400000000000        1.65200000000000
 H          -3.69500000000000       -3.80500000000000        2.83600000000000
 H          -4.65300000000000       -4.79400000000000        1.66000000000000
 H           4.99700000000000        1.83200000000000       -2.83500000000000
 H           6.28500000000000        2.30400000000000       -1.65400000000000
 H           4.74600000000000       -5.01300000000000       -0.00100000000000
 H           2.65500000000000       -6.37400000000000       -0.00100000000000
 H           4.53900000000000       -2.75600000000000       -2.83600000000000
 H           5.71400000000000       -3.47100000000000       -1.65900000000000
 H           4.54100000000000       -2.75700000000000        2.83400000000000
 H           5.71500000000000       -3.47100000000000        1.65600000000000
 H           0.67600000000000       -5.27100000000000        2.83400000000000
 H           0.84800000000000       -6.63300000000000        1.65400000000000
 H           0.67500000000000       -5.27200000000000       -2.83500000000000
 H           0.84800000000000       -6.63300000000000       -1.65400000000000
 H           1.67900000000000        5.03400000000000       -2.83500000000000
 H           2.11200000000000        6.34000000000000       -1.65700000000000
 H           1.68000000000000        5.03400000000000        2.83500000000000
 H           2.11200000000000        6.33900000000000        1.65800000000000
 H          -2.89400000000000        4.44900000000000       -2.83400000000000
 H          -3.64000000000000        5.60500000000000       -1.65700000000000
 H          -3.63900000000000        5.60500000000000        1.65900000000000
 H          -2.89300000000000        4.44900000000000        2.83600000000000
 H          -6.81000000000000       -1.17200000000000        0.00100000000000
 H          -5.94100000000000       -3.51100000000000        0.00100000000000
 H          -5.30300000000000        0.51800000000000        2.83500000000000
 H          -6.66700000000000        0.64900000000000        1.65200000000000
 H          -6.66700000000000        0.64900000000000       -1.65000000000000
 H          -5.30300000000000        0.51800000000000       -2.83400000000000
126
 energy: -251.028919244848 gnorm: 0.059837374094 xtb: 6.6.0 (8843059)
 N           4.96139516106676       -1.59672667130670       -1.21398532787432
 C           5.69068252389537       -1.33427412630275       -0.00111818789976
 C           5.84426333072261        0.21005355660921       -0.00100307092077
 N           5.18184487081803        0.61086304847936       -1.21400279073892
 C           4.64887095044167       -0.45061748822388       -1.90759918165272
 N           4.96242970112088       -1.59691588687120        1.21200721506608
 C           4.64983172749094       -0.45144088354194        1.90585517424764
 N           5.18183047158073        0.61078177096341        1.21202506792026
 O           4.10697236334818       -0.39635781574616       -2.97584104404318
 O           4.10860106492379       -0.39714354685332        2.97436685734449
 N           4.34912311326370        2.88367733344725       -1.21327523199000
 C           4.59514779392060        3.61800312944156       -0.00013284988626
 C           3.47823944733447        4.69603058594638       -0.00000635678325
 N           2.75254257139821        4.42414552273846       -1.21234875669683
 C           3.25364652720127        3.34663705135431       -1.90508893662820
 N           4.34930402998054        2.88355252592035        1.21235502712578
 C           3.25461668634752        3.34594446637673        1.90505114146274
 N           2.75348871568907        4.42427886909493        1.21318253943405
 O           2.87278623038016        2.95234903033472       -2.97136953768100
 O           2.87375507828812        2.95153056911257        2.97128115180095
 N          -0.55609516312196       -5.18019131963610       -1.21314577765301
 C          -1.09443566287631       -5.73716385570784       -0.00001422785970
 C          -2.56578015066663       -5.24314450043140        0.00008046857607
 N          -2.65943521280080       -4.47422060005232       -1.21285330035072
 C          -1.47206242231566       -4.42360341264814       -1.90583971769781
 N          -0.55590439886775       -5.18010760471021        1.21235067860451
 C          -1.47164904837004       -4.42273807718720        1.90570470887743
 N          -2.65916937399218       -4.47407874287949        1.21300828862954
 O          -1.29852251979964       -3.90548070005395       -2.97320040995191
 O          -1.29712896529559       -3.90434516313985        2.97248528073961
 N          -4.93934222781157        1.69877226437434       -1.21218841552353
 C          -5.36109393773624        2.34799420573140        0.00093256989474
 C          -4.55040837550647        3.67138840712652        0.00105117815017
 N          -3.78064100146126        3.59066565389680       -1.21214777078611
 C          -3.99542916202736        2.42168066367794       -1.90482454435132
 N          -4.93873167341180        1.69855559681212        1.21401109265599
 C          -3.99517311451286        2.42139963633081        1.90600314678622
 N          -3.77980673282671        3.59045460350548        1.21342255622677
 O          -3.52849317793630        2.13596658049028       -2.97135812003417
 O          -3.52776008156044        2.13532149229103        2.97248342057474
 N           0.45422972055195        5.18492669258897       -1.21223816230107
 C           0.03538342073015        5.83601200287424        0.00027892528637
 C          -1.50409330873882        5.63888553650895        0.00082698566996
 N          -1.74604875966169        4.90328391393445       -1.21225510419694
 C          -0.59186302646764        4.62152866381270       -1.90522027003867
 N           0.45496277090774        5.18400306949777        1.21317536866704
 C          -0.59089642560723        4.62043864063083        1.90602439390068
 N          -1.74569003298554        4.90250258477305        1.21316821716862
 O          -0.52226610750909        4.07995086838714       -2.97281228198060
 O          -0.52198577649258        4.07806561897245        2.97312246224051
 C          -3.89356800952727       -4.00848772928204       -1.77678724852025
 C           5.26054469298902        1.92806369866836        1.77466874613462
 C          -3.89320505597836       -4.00911706420180        1.77784889448959
 C           5.25968866108006        1.92893145471702       -1.77596909279528
 N           3.70423563961711       -3.66565847619916       -1.21408808181630
 C           3.80662457672146       -4.43341588027215       -0.00103263183830
 C           2.50597388056611       -5.27999180424685       -0.00095906694825
 N           1.84488475240989       -4.87565205294603       -1.21339553219023
 C           2.54129667374770       -3.91244058778136       -1.90607658803895
 N           3.70488520847067       -3.66558105985562        1.21141147364756
 C           2.54271439788673       -3.91242423942124        1.90415096843130
 N           1.84559037740978       -4.87570750443552        1.21227318914274
 O           2.24222526408017       -3.45306896419478       -2.97235042056486
 O           2.24405832617663       -3.45343643694005        2.97094121296282
 C           4.78119321368377       -2.90362935419361       -1.77791873652487
 C           4.78221885434078       -2.90394058845490        1.77563413043405
 C           0.71139697851488       -5.54961151119533        1.77505539559391
 C           0.71060047382251       -5.55031883644008       -1.77595773726896
 C           1.76829761845830        5.30270681502671       -1.77651418940371
 C           1.76906321313452        5.30255980700992        1.77697426993302
 C          -3.04776970455324        4.68775118503032       -1.77601789174409
 C          -3.04687942118586        4.68708824472694        1.77767845152238
 N          -5.17133183634937       -0.71080920923086        1.21403072548640
 C          -5.71049836740214       -1.26637190370197        0.00099367491350
 C          -5.16990804313521       -2.72139699275941        0.00092152506416
 N          -4.39816839257687       -2.79029648707746        1.21391986070078
 C          -4.38678273583991       -1.60278253646507        1.90778618632184
 N          -5.17133919166959       -0.71070820088890       -1.21203170022703
 C          -4.38680146464509       -1.60203746441418       -1.90580508962325
 N          -4.39818243066383       -2.79020846483447       -1.21201244545972
 O          -3.87677055586210       -1.41292748921261        2.97615696911611
 O          -3.87660717933773       -1.41284508080793       -2.97414543784277
 C          -5.58024629385459        0.54464979483362        1.77577546548666
 C          -5.58034961630587        0.54479627755637       -1.77375329635777
 H           6.63666700082515       -1.89990584831298       -0.00186996977472
 H           6.88335964781695        0.57753140534588       -0.00099994031143
 H           5.62493265413201        4.01021661647640       -0.00018030470506
 H           3.83361966379669        5.73906162242836       -0.00002549356007
 H          -0.96737350354527       -6.83171458219868        0.00002737225123
 H          -3.32753666296511       -6.03951275492235        0.00062335600183
 H          -6.45635016840491        2.46899872993278        0.00077868325772
 H          -5.15660518406171        4.59216617263049        0.00106707042577
 H           0.37381702789133        6.88451780389370        0.00112003993113
 H          -2.09621183306034        6.56828048964308        0.00085756489065
 H          -4.65403178643600       -4.79400852112786       -1.66231292326490
 H          -3.68921706287137       -3.79694775910706       -2.83372865291336
 H           4.98852057801186        1.82837831147857        2.83272962176680
 H           6.28614859426246        2.30427044866209        1.65510016709167
 H          -3.68833717398071       -3.79791977319876        2.83480131044744
 H          -4.65367328203354       -4.79454961937122        1.66325235469719
 H           4.98747728361516        1.82885238711332       -2.83400862237413
 H           6.28582400798014        2.30449852531506       -1.65716143542679
 H           4.74370495291254       -5.01376698402296       -0.00090138000653
 H           2.65684844947090       -6.37174856410629       -0.00095789413588
 H           4.53062286611188       -2.75102392286993       -2.83499230011068
 H           5.71518553543865       -3.47149056517639       -1.66228541162244
 H           4.53222133544968       -2.75203007178625        2.83279060499056
 H           5.71614848864850       -3.47186041415505        1.65918327060408
 H           0.67467203741411       -5.26110957649045        2.83292138638552
 H           0.84836720215320       -6.63388093080793        1.65718276587832
 H           0.67380829698737       -5.26214575034245       -2.83392021530830
 H           0.84814094451402       -6.63414158223502       -1.65727020990485
 H           1.67599433064876        5.02457613882390       -2.83357081625470
 H           2.11200977603856        6.34057632255285       -1.66033148810085
 H           1.67699195282642        5.02445567128221        2.83414003048621
 H           2.11218257104632        6.34016769281438        1.66101970259825
 H          -2.88870021529476        4.44097494522989       -2.83306764041291
 H          -3.64043760116507        5.60605072493713       -1.66029880831097
 H          -3.63959133656864        5.60586809796921        1.66241209821460
 H          -2.88766731125836        4.44051118257111        2.83465893433356
 H          -6.80868140253217       -1.17435209121384        0.00101325345333
 H          -5.94141981057855       -3.50823993326593        0.00088234386389
 H          -5.29299301361132        0.51689681124080        2.83407859504118
 H          -6.66761610912274        0.64946040810672        1.65504279671907
 H          -6.66779524688493        0.64930575756379       -1.65321121084253
 H          -5.29315342888252        0.51695785983979       -2.83237909973594
126
 energy: -251.033030621693 gnorm: 0.015911635695 xtb: 6.6.0 (8843059)
 N           4.96061584964769       -1.59765423515452       -1.21343728390933
 C           5.68455849342438       -1.33440248173371       -0.00121458430928
 C           5.83845023007346        0.21101332865819       -0.00104258365218
 N           5.18124542412806        0.61184740880777       -1.21352354623612
 C           4.66191220830538       -0.45203806453567       -1.92442439074242
 N           4.96169543919569       -1.59800033156347        1.21151216218142
 C           4.66287854165436       -0.45269955550900        1.92278370470273
 N           5.18127635116738        0.61163336334472        1.21156495475396
 O           4.14484765903442       -0.40042593066254       -2.99875946167346
 O           4.14639949081463       -0.40112812097215        2.99748483672716
 N           4.34899751995011        2.88235185674011       -1.21294460096878
 C           4.59104513597712        3.61301503593041       -0.00027102683492
 C           3.47350835749784        4.69180512423638        0.00002652450948
 N           2.75108611517224        4.42414902060702       -1.21211210393419
 C           3.26284435035834        3.35607164271069       -1.92228935699533
 N           4.34932212879411        2.88207401088282        1.21215004563510
 C           3.26371652979375        3.35562625136874        1.92221988940328
 N           2.75195113396697        4.42433706439681        1.21277044725808
 O           2.89960317897772        2.98003470815056       -2.99504589509702
 O           2.90059263069361        2.97935945648664        2.99492983777269
 N          -0.55521997382467       -5.17977910668091       -1.21272016377525
 C          -1.09199226429483       -5.73129086149640        0.00001037265708
 C          -2.56442979758902       -5.23727587940423        0.00016239226231
 N          -2.66030525143675       -4.47332136621243       -1.21224616856495
 C          -1.47672883239990       -4.43598463060109       -1.92289144779959
 N          -0.55479303863534       -5.17950021430722        1.21219970218439
 C          -1.47600221662735       -4.43525752086878        1.92259488685618
 N          -2.65987496424531       -4.47306269456582        1.21251953747821
 O          -1.31125831099284       -3.94182345274090       -2.99654069729329
 O          -1.30975581572754       -3.94066790586509        2.99597356610548
 N          -4.93873307467538        1.69749636737758       -1.21178650001111
 C          -5.35593073516168        2.34406725819082        0.00094460419017
 C          -4.54477300990626        3.66862465830597        0.00097079076697
 N          -3.77909374012688        3.59097722219261       -1.21176436978982
 C          -4.00668664348028        2.42857910830985       -1.92175962173307
 N          -4.93840453295738        1.69717226461093        1.21346220802162
 C          -4.00620044724266        2.42811587779114        1.92314311185287
 N          -3.77851681008086        3.59058698005403        1.21319757429028
 O          -3.56132375215991        2.15585611131014       -2.99487225389860
 O          -3.56057651423663        2.15541851555409        2.99611718653624
 N           0.45546997286255        5.18435866035602       -1.21197673694345
 C           0.03662734205491        5.82994754468091        0.00052962738490
 C          -1.50393472569505        5.63281714502932        0.00073998798309
 N          -1.74715946813952        4.90240169305920       -1.21186482048579
 C          -0.59367698394379        4.63488111394942       -1.92248268589300
 N           0.45593380312617        5.18353221689668        1.21277607806897
 C          -0.59287478656852        4.63384347929023        1.92317232194670
 N          -1.74665401093156        4.90178965799252        1.21283625136916
 O          -0.52745569995133        4.11808341448076       -2.99605241059856
 O          -0.52690924598853        4.11640670408019        2.99652824261907
 C          -3.89194103399558       -4.00679337983653       -1.77725454692394
 C           5.25776890927542        1.92705313370761        1.77499836184373
 C          -3.89137737341329       -4.00711652736721        1.77827856085725
 C           5.25711213275081        1.92775582520678       -1.77648394251639
 N           3.70488159498378       -3.66425193791022       -1.21358100214208
 C           3.80390055924897       -4.42786241785499       -0.00113017092096
 C           2.50200976353606       -5.27490702268945       -0.00079528864754
 N           1.84371272906810       -4.87526992685745       -1.21307776223496
 C           2.54879154288372       -3.92349225249873       -1.92314028900045
 N           3.70538630194753       -3.66416087741071        1.21125726083900
 C           2.54987584213489       -3.92353492571035        1.92154931104679
 N           1.84428576678695       -4.87535775004817        1.21199576739582
 O           2.26342747731216       -3.48535546851944       -2.99590627715798
 O           2.26513742214173       -3.48568597837107        2.99447463799518
 C           4.77911506518928       -2.90215817306542       -1.77835999826423
 C           4.78018606466729       -2.90270366556725        1.77591377107010
 C           0.71078815546036       -5.54685568342893        1.77569272139476
 C           0.71015260010699       -5.54730617568925       -1.77639023496548
 C           1.76749879829023        5.30024559922420       -1.77672069546548
 C           1.76801611120149        5.29992747627686        1.77744142388576
 C          -3.04632917070451        4.68546116109419       -1.77654801364530
 C          -3.04562451238249        4.68496596066252        1.77800902705450
 N          -5.17088797817342       -0.70968124927429        1.21352873902569
 C          -5.70482817250548       -1.26388591555531        0.00093358679041
 C          -5.16387263248934       -2.71972928970965        0.00081543269361
 N          -4.39724829106597       -2.79104077099499        1.21331156281911
 C          -4.39902304595494       -1.60737905897502        1.92457140004704
 N          -5.17089943539824       -0.70950064760254       -1.21163130397164
 C          -4.39902782026261       -1.60690813065609       -1.92269815913775
 N          -4.39721163140446       -2.79087391068607       -1.21157248535717
 O          -3.91227738486685       -1.42643583745895        2.99915534857228
 O          -3.91203918543764       -1.42620849295656       -2.99721699669740
 C          -5.57720290291619        0.54426293689717        1.77609846075198
 C          -5.57739470737135        0.54448899944965       -1.77420082975670
 H           6.63639157055060       -1.89570124710984       -0.00172245299853
 H           6.88227129627319        0.57376770176772       -0.00107408345544
 H           5.62152308200823        4.01200971208729       -0.00047271351145
 H           3.83589506842603        5.73574310069171       -0.00011312723264
 H          -0.97072850235459       -6.82966745082533       -0.00008456196903
 H          -3.32367278779904       -6.04017146838959        0.00037980049634
 H          -6.45354360125169        2.47179483588242        0.00117915010864
 H          -5.15753191475184        4.58816959898244        0.00112645301739
 H           0.37014239024298        6.88348010345125        0.00110299092327
 H          -2.09192147351024        6.56846541022708        0.00098207138329
 H          -4.65453734404693       -4.79434973812048       -1.66954564291557
 H          -3.68351347038002       -3.79109605114300       -2.83317527914550
 H           4.98052477850838        1.82523557533778        2.83217079807016
 H           6.28640016020032        2.30426547819447        1.66225282869338
 H          -3.68276045147539       -3.79192943308901        2.83422262182941
 H          -4.65388635483151       -4.79468937692064        1.67040252522382
 H           4.97944107268368        1.82609415012658       -2.83357741809032
 H           6.28586601366884        2.30473312958803       -1.66423166579099
 H           4.73995142702919       -5.01507830791101       -0.00146031711397
 H           2.65961441308799       -6.36861155762653       -0.00080820323904
 H           4.52364802512498       -2.74678877857313       -2.83453086995333
 H           5.71571297492762       -3.47152689896561       -1.66953491636505
 H           4.52512533796682       -2.74778588514465        2.83226634707324
 H           5.71659150475880       -3.47223305958576        1.66635833431682
 H           0.67354662484612       -5.25269129903916        2.83252389325489
 H           0.84855136181717       -6.63390857314725        1.66429441858078
 H           0.67272330469825       -5.25369851194466       -2.83336878743436
 H           0.84818651214925       -6.63430105787132       -1.66441595149273
 H           1.67349559715874        5.01671787682753       -2.83293211253018
 H           2.11199507086093        6.34064950639854       -1.66758892917608
 H           1.67435268323621        5.01646612544366        2.83374106845195
 H           2.11213363806850        6.34055322460937        1.66809614848949
 H          -2.88428694846476        4.43430979764639       -2.83270960240306
 H          -3.64063666484896        5.60643116133670       -1.66757466001434
 H          -3.63993075692562        5.60599931001841        1.66964495758260
 H          -2.88325057493574        4.43343878544463        2.83405808530716
 H          -6.80652957912661       -1.17786978860062        0.00089281559640
 H          -5.94213670461692       -3.50419849444541        0.00083023318798
 H          -5.28439878683020        0.51592963730275        2.83362841114305
 H          -6.66751837693707        0.64971285476654        1.66215354808336
 H          -6.66777864637876        0.64958745880494       -1.66034142803023
 H          -5.28469576712148        0.51607490473314       -2.83166028960717
126
 energy: -251.034940234906 gnorm: 0.022989054153 xtb: 6.6.0 (8843059)
 N           4.95966983179702       -1.59792707882728       -1.21386297267080
 C           5.67963115189274       -1.33432331248741       -0.00125875930521